V -t * -v 1.0a5 -a 0
W -t * -x 800 -y 600
A -t * -n 1 -p 0 -o 0x7fffffff -c 30 -a 1
A -t * -h 1 -m 1073741823 -s 0
n -t 1.000000 -s 0 -x 774.196672 -y 542.600422 -U -10.563113 -V -5.693913 -T 25.154533
n -t 1.000000 -s 1 -x 113.716098 -y 19.839292 -U 8.686372 -V 24.506059 -T 17.308949
n -t 1.000000 -s 2 -x 585.308172 -y 355.831432 -U -16.806367 -V 8.862621 -T 27.519465
n -t 1.000000 -s 3 -x 345.162771 -y 263.019877 -U 35.998283 -V 0.351609 -T 4.898990
n -t 1.000000 -s 4 -x 500.104358 -y 340.462211 -U -4.546640 -V 12.179001 -T 3.799475
n -t 1.000000 -s 5 -x 731.163852 -y 503.148666 -U -22.380546 -V -25.595139 -T 17.471219
n -t 1.000000 -s 6 -x 26.170061 -y 480.158846 -U 3.358565 -V -18.700803 -T 25.371718
n -t 1.000000 -s 7 -x 39.641860 -y 495.552908 -U 5.572763 -V -17.115616 -T 17.428758
n -t 1.000000 -s 8 -x 210.308510 -y 191.347732 -U 11.613942 -V 34.075157 -T 9.227769
n -t 1.000000 -s 9 -x 775.115638 -y 126.398606 -U -24.148216 -V -6.470215 -T 6.875439
+ -t 2.000000000 -s 0 -d -1 -p tcp -e 40 -c 2 -a 0 -i 0 -k AGT 
- -t 2.000000000 -s 0 -d -1 -p tcp -e 40 -c 2 -a 0 -i 0 -k AGT
h -t 2.000000000 -s 0 -d -1 -p tcp -e 40 -c 2 -a 0 -i 0 -k AGT
+ -t 2.000000000 -s 0 -d -1 -p AODV -e 48 -c 2 -a 0 -i 0 -k RTR 
- -t 2.000000000 -s 0 -d -1 -p AODV -e 48 -c 2 -a 0 -i 0 -k RTR
h -t 2.000000000 -s 0 -d -1 -p AODV -e 48 -c 2 -a 0 -i 0 -k RTR
+ -t 2.000115000 -s 0 -d -1 -p AODV -e 106 -c 2 -a 0 -i 0 -k MAC 
- -t 2.000115000 -s 0 -d -1 -p AODV -e 106 -c 2 -a 0 -i 0 -k MAC
h -t 2.000115000 -s 0 -d -1 -p AODV -e 106 -c 2 -a 0 -i 0 -k MAC
r -t 2.000963269 -s 5 -d -1 -p AODV -e 48 -c 2 -a 0 -i 0 -k MAC
r -t 2.000988269 -s 5 -d -1 -p AODV -e 48 -c 2 -a 0 -i 0 -k RTR
+ -t 2.001869496 -s 5 -d -1 -p AODV -e 48 -c 2 -a 0 -i 0 -k RTR 
- -t 2.001869496 -s 5 -d -1 -p AODV -e 48 -c 2 -a 0 -i 0 -k RTR
h -t 2.001869496 -s 5 -d -1 -p AODV -e 48 -c 2 -a 0 -i 0 -k RTR
+ -t 2.002264496 -s 5 -d -1 -p AODV -e 106 -c 2 -a 0 -i 0 -k MAC 
- -t 2.002264496 -s 5 -d -1 -p AODV -e 106 -c 2 -a 0 -i 0 -k MAC
h -t 2.002264496 -s 5 -d -1 -p AODV -e 106 -c 2 -a 0 -i 0 -k MAC
r -t 2.003112766 -s 0 -d -1 -p AODV -e 48 -c 2 -a 0 -i 0 -k MAC
r -t 2.003113096 -s 2 -d -1 -p AODV -e 48 -c 2 -a 0 -i 0 -k MAC
r -t 2.003113320 -s 4 -d -1 -p AODV -e 48 -c 2 -a 0 -i 0 -k MAC
r -t 2.003137766 -s 0 -d -1 -p AODV -e 48 -c 2 -a 0 -i 0 -k RTR
r -t 2.003138096 -s 2 -d -1 -p AODV -e 48 -c 2 -a 0 -i 0 -k RTR
r -t 2.003138320 -s 4 -d -1 -p AODV -e 48 -c 2 -a 0 -i 0 -k RTR
+ -t 2.003138320 -s 4 -d 5 -p AODV -e 44 -c 2 -a 0 -i 0 -k RTR 
- -t 2.003138320 -s 4 -d 5 -p AODV -e 44 -c 2 -a 0 -i 0 -k RTR
h -t 2.003138320 -s 4 -d 5 -p AODV -e 44 -c 2 -a 0 -i 0 -k RTR
+ -t 2.003393320 -s 4 -d -1 -p ARP -e 86 -c 2 -a 0 -i 0 -k MAC 
- -t 2.003393320 -s 4 -d -1 -p ARP -e 86 -c 2 -a 0 -i 0 -k MAC
h -t 2.003393320 -s 4 -d -1 -p ARP -e 86 -c 2 -a 0 -i 0 -k MAC
r -t 2.004081566 -s 2 -d -1 -p ARP -e 28 -c 2 -a 0 -i 0 -k MAC
r -t 2.004081803 -s 3 -d -1 -p ARP -e 28 -c 2 -a 0 -i 0 -k MAC
r -t 2.004082143 -s 5 -d -1 -p ARP -e 28 -c 2 -a 0 -i 0 -k MAC
+ -t 2.004497143 -s 5 -d -1 -p RTS -e 44 -c 2 -a 0 -i 0 -k MAC 
- -t 2.004497143 -s 5 -d -1 -p RTS -e 44 -c 2 -a 0 -i 0 -k MAC
h -t 2.004497143 -s 5 -d -1 -p RTS -e 44 -c 2 -a 0 -i 0 -k MAC
r -t 2.004849966 -s 4 -d -1 -p RTS -e 44 -c 2 -a 0 -i 0 -k MAC
+ -t 2.004859966 -s 4 -d -1 -p CTS -e 38 -c 2 -a 0 -i 0 -k MAC 
- -t 2.004859966 -s 4 -d -1 -p CTS -e 38 -c 2 -a 0 -i 0 -k MAC
h -t 2.004859966 -s 4 -d -1 -p CTS -e 38 -c 2 -a 0 -i 0 -k MAC
r -t 2.005164789 -s 5 -d -1 -p CTS -e 38 -c 2 -a 0 -i 0 -k MAC
+ -t 2.005174789 -s 5 -d -1 -p ARP -e 86 -c 2 -a 0 -i 0 -k MAC 
- -t 2.005174789 -s 5 -d -1 -p ARP -e 86 -c 2 -a 0 -i 0 -k MAC
h -t 2.005174789 -s 5 -d -1 -p ARP -e 86 -c 2 -a 0 -i 0 -k MAC
r -t 2.005863612 -s 4 -d -1 -p ARP -e 28 -c 2 -a 0 -i 0 -k MAC
+ -t 2.005873612 -s 4 -d -1 -p ACK -e 38 -c 2 -a 0 -i 0 -k MAC 
- -t 2.005873612 -s 4 -d -1 -p ACK -e 38 -c 2 -a 0 -i 0 -k MAC
h -t 2.005873612 -s 4 -d -1 -p ACK -e 38 -c 2 -a 0 -i 0 -k MAC
r -t 2.006178436 -s 5 -d -1 -p ACK -e 38 -c 2 -a 0 -i 0 -k MAC
+ -t 2.006267714 -s 2 -d -1 -p AODV -e 48 -c 2 -a 0 -i 0 -k RTR 
- -t 2.006267714 -s 2 -d -1 -p AODV -e 48 -c 2 -a 0 -i 0 -k RTR
h -t 2.006267714 -s 2 -d -1 -p AODV -e 48 -c 2 -a 0 -i 0 -k RTR
+ -t 2.006382714 -s 2 -d -1 -p AODV -e 106 -c 2 -a 0 -i 0 -k MAC 
- -t 2.006382714 -s 2 -d -1 -p AODV -e 106 -c 2 -a 0 -i 0 -k MAC
h -t 2.006382714 -s 2 -d -1 -p AODV -e 106 -c 2 -a 0 -i 0 -k MAC
r -t 2.007230960 -s 4 -d -1 -p AODV -e 48 -c 2 -a 0 -i 0 -k MAC
r -t 2.007231313 -s 5 -d -1 -p AODV -e 48 -c 2 -a 0 -i 0 -k MAC
r -t 2.007231423 -s 3 -d -1 -p AODV -e 48 -c 2 -a 0 -i 0 -k MAC
r -t 2.007255960 -s 4 -d -1 -p AODV -e 48 -c 2 -a 0 -i 0 -k RTR
r -t 2.007256313 -s 5 -d -1 -p AODV -e 48 -c 2 -a 0 -i 0 -k RTR
r -t 2.007256423 -s 3 -d -1 -p AODV -e 48 -c 2 -a 0 -i 0 -k RTR
+ -t 2.007400960 -s 4 -d -1 -p RTS -e 44 -c 2 -a 0 -i 0 -k MAC 
- -t 2.007400960 -s 4 -d -1 -p RTS -e 44 -c 2 -a 0 -i 0 -k MAC
h -t 2.007400960 -s 4 -d -1 -p RTS -e 44 -c 2 -a 0 -i 0 -k MAC
r -t 2.007753783 -s 5 -d -1 -p RTS -e 44 -c 2 -a 0 -i 0 -k MAC
+ -t 2.007763783 -s 5 -d -1 -p CTS -e 38 -c 2 -a 0 -i 0 -k MAC 
- -t 2.007763783 -s 5 -d -1 -p CTS -e 38 -c 2 -a 0 -i 0 -k MAC
h -t 2.007763783 -s 5 -d -1 -p CTS -e 38 -c 2 -a 0 -i 0 -k MAC
r -t 2.008068606 -s 4 -d -1 -p CTS -e 38 -c 2 -a 0 -i 0 -k MAC
+ -t 2.008078606 -s 4 -d 5 -p AODV -e 102 -c 2 -a 0 -i 0 -k MAC 
- -t 2.008078606 -s 4 -d 5 -p AODV -e 102 -c 2 -a 0 -i 0 -k MAC
h -t 2.008078606 -s 4 -d 5 -p AODV -e 102 -c 2 -a 0 -i 0 -k MAC
r -t 2.008895428 -s 5 -d 5 -p AODV -e 44 -c 2 -a 0 -i 0 -k MAC
+ -t 2.008905428 -s 5 -d -1 -p ACK -e 38 -c 2 -a 0 -i 0 -k MAC 
- -t 2.008905428 -s 5 -d -1 -p ACK -e 38 -c 2 -a 0 -i 0 -k MAC
h -t 2.008905428 -s 5 -d -1 -p ACK -e 38 -c 2 -a 0 -i 0 -k MAC
+ -t 2.008920428 -s 5 -d 0 -p AODV -e 44 -c 2 -a 0 -i 0 -k RTR 
- -t 2.008920428 -s 5 -d 0 -p AODV -e 44 -c 2 -a 0 -i 0 -k RTR
h -t 2.008920428 -s 5 -d 0 -p AODV -e 44 -c 2 -a 0 -i 0 -k RTR
r -t 2.009210251 -s 4 -d -1 -p ACK -e 38 -c 2 -a 0 -i 0 -k MAC
+ -t 2.009619428 -s 5 -d -1 -p ARP -e 86 -c 2 -a 0 -i 0 -k MAC 
- -t 2.009619428 -s 5 -d -1 -p ARP -e 86 -c 2 -a 0 -i 0 -k MAC
h -t 2.009619428 -s 5 -d -1 -p ARP -e 86 -c 2 -a 0 -i 0 -k MAC
r -t 2.010307699 -s 0 -d -1 -p ARP -e 28 -c 2 -a 0 -i 0 -k MAC
r -t 2.010308028 -s 2 -d -1 -p ARP -e 28 -c 2 -a 0 -i 0 -k MAC
r -t 2.010308251 -s 4 -d -1 -p ARP -e 28 -c 2 -a 0 -i 0 -k MAC
+ -t 2.010842699 -s 0 -d -1 -p RTS -e 44 -c 2 -a 0 -i 0 -k MAC 
- -t 2.010842699 -s 0 -d -1 -p RTS -e 44 -c 2 -a 0 -i 0 -k MAC
h -t 2.010842699 -s 0 -d -1 -p RTS -e 44 -c 2 -a 0 -i 0 -k MAC
r -t 2.011194969 -s 5 -d -1 -p RTS -e 44 -c 2 -a 0 -i 0 -k MAC
+ -t 2.011204969 -s 5 -d -1 -p CTS -e 38 -c 2 -a 0 -i 0 -k MAC 
- -t 2.011204969 -s 5 -d -1 -p CTS -e 38 -c 2 -a 0 -i 0 -k MAC
h -t 2.011204969 -s 5 -d -1 -p CTS -e 38 -c 2 -a 0 -i 0 -k MAC
r -t 2.011509239 -s 0 -d -1 -p CTS -e 38 -c 2 -a 0 -i 0 -k MAC
+ -t 2.011519239 -s 0 -d -1 -p ARP -e 86 -c 2 -a 0 -i 0 -k MAC 
- -t 2.011519239 -s 0 -d -1 -p ARP -e 86 -c 2 -a 0 -i 0 -k MAC
h -t 2.011519239 -s 0 -d -1 -p ARP -e 86 -c 2 -a 0 -i 0 -k MAC
r -t 2.012207509 -s 5 -d -1 -p ARP -e 28 -c 2 -a 0 -i 0 -k MAC
+ -t 2.012217509 -s 5 -d -1 -p ACK -e 38 -c 2 -a 0 -i 0 -k MAC 
- -t 2.012217509 -s 5 -d -1 -p ACK -e 38 -c 2 -a 0 -i 0 -k MAC
h -t 2.012217509 -s 5 -d -1 -p ACK -e 38 -c 2 -a 0 -i 0 -k MAC
r -t 2.012521780 -s 0 -d -1 -p ACK -e 38 -c 2 -a 0 -i 0 -k MAC
+ -t 2.012911509 -s 5 -d -1 -p RTS -e 44 -c 2 -a 0 -i 0 -k MAC 
- -t 2.012911509 -s 5 -d -1 -p RTS -e 44 -c 2 -a 0 -i 0 -k MAC
h -t 2.012911509 -s 5 -d -1 -p RTS -e 44 -c 2 -a 0 -i 0 -k MAC
r -t 2.013263780 -s 0 -d -1 -p RTS -e 44 -c 2 -a 0 -i 0 -k MAC
+ -t 2.013273780 -s 0 -d -1 -p CTS -e 38 -c 2 -a 0 -i 0 -k MAC 
- -t 2.013273780 -s 0 -d -1 -p CTS -e 38 -c 2 -a 0 -i 0 -k MAC
h -t 2.013273780 -s 0 -d -1 -p CTS -e 38 -c 2 -a 0 -i 0 -k MAC
r -t 2.013578050 -s 5 -d -1 -p CTS -e 38 -c 2 -a 0 -i 0 -k MAC
+ -t 2.013588050 -s 5 -d 0 -p AODV -e 102 -c 2 -a 0 -i 0 -k MAC 
- -t 2.013588050 -s 5 -d 0 -p AODV -e 102 -c 2 -a 0 -i 0 -k MAC
h -t 2.013588050 -s 5 -d 0 -p AODV -e 102 -c 2 -a 0 -i 0 -k MAC
+ -t 2.013657099 -s 3 -d -1 -p AODV -e 48 -c 2 -a 0 -i 0 -k RTR 
- -t 2.013657099 -s 3 -d -1 -p AODV -e 48 -c 2 -a 0 -i 0 -k RTR
h -t 2.013657099 -s 3 -d -1 -p AODV -e 48 -c 2 -a 0 -i 0 -k RTR
r -t 2.014404320 -s 0 -d 0 -p AODV -e 44 -c 2 -a 0 -i 0 -k MAC
+ -t 2.014414320 -s 0 -d -1 -p ACK -e 38 -c 2 -a 0 -i 0 -k MAC 
- -t 2.014414320 -s 0 -d -1 -p ACK -e 38 -c 2 -a 0 -i 0 -k MAC
h -t 2.014414320 -s 0 -d -1 -p ACK -e 38 -c 2 -a 0 -i 0 -k MAC
+ -t 2.014429320 -s 0 -d 5 -p tcp -e 40 -c 2 -a 0 -i 0 -k RTR 
- -t 2.014429320 -s 0 -d 5 -p tcp -e 40 -c 2 -a 0 -i 0 -k RTR
h -t 2.014429320 -s 0 -d 5 -p tcp -e 40 -c 2 -a 0 -i 0 -k RTR
r -t 2.014718591 -s 5 -d -1 -p ACK -e 38 -c 2 -a 0 -i 0 -k MAC
+ -t 2.014988320 -s 0 -d -1 -p RTS -e 44 -c 2 -a 0 -i 0 -k MAC 
- -t 2.014988320 -s 0 -d -1 -p RTS -e 44 -c 2 -a 0 -i 0 -k MAC
h -t 2.014988320 -s 0 -d -1 -p RTS -e 44 -c 2 -a 0 -i 0 -k MAC
r -t 2.015340591 -s 5 -d -1 -p RTS -e 44 -c 2 -a 0 -i 0 -k MAC
+ -t 2.015350591 -s 5 -d -1 -p CTS -e 38 -c 2 -a 0 -i 0 -k MAC 
- -t 2.015350591 -s 5 -d -1 -p CTS -e 38 -c 2 -a 0 -i 0 -k MAC
h -t 2.015350591 -s 5 -d -1 -p CTS -e 38 -c 2 -a 0 -i 0 -k MAC
r -t 2.015654862 -s 0 -d -1 -p CTS -e 38 -c 2 -a 0 -i 0 -k MAC
+ -t 2.015664862 -s 0 -d 5 -p tcp -e 98 -c 2 -a 0 -i 0 -k MAC 
- -t 2.015664862 -s 0 -d 5 -p tcp -e 98 -c 2 -a 0 -i 0 -k MAC
h -t 2.015664862 -s 0 -d 5 -p tcp -e 98 -c 2 -a 0 -i 0 -k MAC
r -t 2.016449132 -s 5 -d 5 -p tcp -e 40 -c 2 -a 0 -i 0 -k MAC
+ -t 2.016459132 -s 5 -d -1 -p ACK -e 38 -c 2 -a 0 -i 0 -k MAC 
- -t 2.016459132 -s 5 -d -1 -p ACK -e 38 -c 2 -a 0 -i 0 -k MAC
h -t 2.016459132 -s 5 -d -1 -p ACK -e 38 -c 2 -a 0 -i 0 -k MAC
+ -t 2.016474132 -s 5 -d 4 -p tcp -e 40 -c 2 -a 0 -i 0 -k RTR 
- -t 2.016474132 -s 5 -d 4 -p tcp -e 40 -c 2 -a 0 -i 0 -k RTR
h -t 2.016474132 -s 5 -d 4 -p tcp -e 40 -c 2 -a 0 -i 0 -k RTR
r -t 2.016763403 -s 0 -d -1 -p ACK -e 38 -c 2 -a 0 -i 0 -k MAC
+ -t 2.017053132 -s 5 -d -1 -p RTS -e 44 -c 2 -a 0 -i 0 -k MAC 
- -t 2.017053132 -s 5 -d -1 -p RTS -e 44 -c 2 -a 0 -i 0 -k MAC
h -t 2.017053132 -s 5 -d -1 -p RTS -e 44 -c 2 -a 0 -i 0 -k MAC
r -t 2.017405954 -s 4 -d -1 -p RTS -e 44 -c 2 -a 0 -i 0 -k MAC
+ -t 2.017415954 -s 4 -d -1 -p CTS -e 38 -c 2 -a 0 -i 0 -k MAC 
- -t 2.017415954 -s 4 -d -1 -p CTS -e 38 -c 2 -a 0 -i 0 -k MAC
h -t 2.017415954 -s 4 -d -1 -p CTS -e 38 -c 2 -a 0 -i 0 -k MAC
r -t 2.017720776 -s 5 -d -1 -p CTS -e 38 -c 2 -a 0 -i 0 -k MAC
+ -t 2.017730776 -s 5 -d 4 -p tcp -e 98 -c 2 -a 0 -i 0 -k MAC 
- -t 2.017730776 -s 5 -d 4 -p tcp -e 98 -c 2 -a 0 -i 0 -k MAC
h -t 2.017730776 -s 5 -d 4 -p tcp -e 98 -c 2 -a 0 -i 0 -k MAC
r -t 2.018515597 -s 4 -d 4 -p tcp -e 40 -c 2 -a 0 -i 0 -k MAC
+ -t 2.018525597 -s 4 -d -1 -p ACK -e 38 -c 2 -a 0 -i 0 -k MAC 
- -t 2.018525597 -s 4 -d -1 -p ACK -e 38 -c 2 -a 0 -i 0 -k MAC
h -t 2.018525597 -s 4 -d -1 -p ACK -e 38 -c 2 -a 0 -i 0 -k MAC
r -t 2.018540597 -s 4 -d 4 -p tcp -e 40 -c 2 -a 0 -i 0 -k AGT
+ -t 2.018540597 -s 4 -d -1 -p ack -e 40 -c 2 -a 0 -i 1 -k AGT 
- -t 2.018540597 -s 4 -d -1 -p ack -e 40 -c 2 -a 0 -i 1 -k AGT
h -t 2.018540597 -s 4 -d -1 -p ack -e 40 -c 2 -a 0 -i 1 -k AGT
+ -t 2.018540597 -s 4 -d 5 -p ack -e 40 -c 2 -a 0 -i 1 -k RTR 
- -t 2.018540597 -s 4 -d 5 -p ack -e 40 -c 2 -a 0 -i 1 -k RTR
h -t 2.018540597 -s 4 -d 5 -p ack -e 40 -c 2 -a 0 -i 1 -k RTR
r -t 2.018830419 -s 5 -d -1 -p ACK -e 38 -c 2 -a 0 -i 0 -k MAC
+ -t 2.019059597 -s 4 -d -1 -p RTS -e 44 -c 2 -a 0 -i 0 -k MAC 
- -t 2.019059597 -s 4 -d -1 -p RTS -e 44 -c 2 -a 0 -i 0 -k MAC
h -t 2.019059597 -s 4 -d -1 -p RTS -e 44 -c 2 -a 0 -i 0 -k MAC
r -t 2.019412419 -s 5 -d -1 -p RTS -e 44 -c 2 -a 0 -i 0 -k MAC
+ -t 2.019422419 -s 5 -d -1 -p CTS -e 38 -c 2 -a 0 -i 0 -k MAC 
- -t 2.019422419 -s 5 -d -1 -p CTS -e 38 -c 2 -a 0 -i 0 -k MAC
h -t 2.019422419 -s 5 -d -1 -p CTS -e 38 -c 2 -a 0 -i 0 -k MAC
r -t 2.019727240 -s 4 -d -1 -p CTS -e 38 -c 2 -a 0 -i 0 -k MAC
+ -t 2.019737240 -s 4 -d 5 -p ack -e 98 -c 2 -a 0 -i 1 -k MAC 
- -t 2.019737240 -s 4 -d 5 -p ack -e 98 -c 2 -a 0 -i 1 -k MAC
h -t 2.019737240 -s 4 -d 5 -p ack -e 98 -c 2 -a 0 -i 1 -k MAC
r -t 2.020522062 -s 5 -d 5 -p ack -e 40 -c 2 -a 0 -i 1 -k MAC
+ -t 2.020532062 -s 5 -d -1 -p ACK -e 38 -c 2 -a 0 -i 0 -k MAC 
- -t 2.020532062 -s 5 -d -1 -p ACK -e 38 -c 2 -a 0 -i 0 -k MAC
h -t 2.020532062 -s 5 -d -1 -p ACK -e 38 -c 2 -a 0 -i 0 -k MAC
+ -t 2.020547062 -s 5 -d 0 -p ack -e 40 -c 2 -a 0 -i 1 -k RTR 
- -t 2.020547062 -s 5 -d 0 -p ack -e 40 -c 2 -a 0 -i 1 -k RTR
h -t 2.020547062 -s 5 -d 0 -p ack -e 40 -c 2 -a 0 -i 1 -k RTR
r -t 2.020836883 -s 4 -d -1 -p ACK -e 38 -c 2 -a 0 -i 0 -k MAC
+ -t 2.021306062 -s 5 -d -1 -p RTS -e 44 -c 2 -a 0 -i 0 -k MAC 
- -t 2.021306062 -s 5 -d -1 -p RTS -e 44 -c 2 -a 0 -i 0 -k MAC
h -t 2.021306062 -s 5 -d -1 -p RTS -e 44 -c 2 -a 0 -i 0 -k MAC
r -t 2.021658333 -s 0 -d -1 -p RTS -e 44 -c 2 -a 0 -i 0 -k MAC
+ -t 2.021668333 -s 0 -d -1 -p CTS -e 38 -c 2 -a 0 -i 0 -k MAC 
- -t 2.021668333 -s 0 -d -1 -p CTS -e 38 -c 2 -a 0 -i 0 -k MAC
h -t 2.021668333 -s 0 -d -1 -p CTS -e 38 -c 2 -a 0 -i 0 -k MAC
r -t 2.021972604 -s 5 -d -1 -p CTS -e 38 -c 2 -a 0 -i 0 -k MAC
+ -t 2.021982604 -s 5 -d 0 -p ack -e 98 -c 2 -a 0 -i 1 -k MAC 
- -t 2.021982604 -s 5 -d 0 -p ack -e 98 -c 2 -a 0 -i 1 -k MAC
h -t 2.021982604 -s 5 -d 0 -p ack -e 98 -c 2 -a 0 -i 1 -k MAC
r -t 2.022766875 -s 0 -d 0 -p ack -e 40 -c 2 -a 0 -i 1 -k MAC
+ -t 2.022776875 -s 0 -d -1 -p ACK -e 38 -c 2 -a 0 -i 0 -k MAC 
- -t 2.022776875 -s 0 -d -1 -p ACK -e 38 -c 2 -a 0 -i 0 -k MAC
h -t 2.022776875 -s 0 -d -1 -p ACK -e 38 -c 2 -a 0 -i 0 -k MAC
r -t 2.022791875 -s 0 -d 0 -p ack -e 40 -c 2 -a 0 -i 1 -k AGT
+ -t 2.022791875 -s 0 -d -1 -p tcp -e 1040 -c 2 -a 0 -i 2 -k AGT 
- -t 2.022791875 -s 0 -d -1 -p tcp -e 1040 -c 2 -a 0 -i 2 -k AGT
h -t 2.022791875 -s 0 -d -1 -p tcp -e 1040 -c 2 -a 0 -i 2 -k AGT
+ -t 2.022791875 -s 0 -d -1 -p tcp -e 1040 -c 2 -a 0 -i 3 -k AGT 
- -t 2.022791875 -s 0 -d -1 -p tcp -e 1040 -c 2 -a 0 -i 3 -k AGT
h -t 2.022791875 -s 0 -d -1 -p tcp -e 1040 -c 2 -a 0 -i 3 -k AGT
+ -t 2.022791875 -s 0 -d 5 -p tcp -e 1040 -c 2 -a 0 -i 2 -k RTR 
- -t 2.022791875 -s 0 -d 5 -p tcp -e 1040 -c 2 -a 0 -i 2 -k RTR
h -t 2.022791875 -s 0 -d 5 -p tcp -e 1040 -c 2 -a 0 -i 2 -k RTR
+ -t 2.022791875 -s 0 -d 5 -p tcp -e 1040 -c 2 -a 0 -i 3 -k RTR 
- -t 2.022791875 -s 0 -d 5 -p tcp -e 1040 -c 2 -a 0 -i 3 -k RTR
h -t 2.022791875 -s 0 -d 5 -p tcp -e 1040 -c 2 -a 0 -i 3 -k RTR
r -t 2.023081146 -s 5 -d -1 -p ACK -e 38 -c 2 -a 0 -i 0 -k MAC
+ -t 2.023536439 -s 3 -d -1 -p AODV -e 106 -c 2 -a 0 -i 0 -k MAC 
- -t 2.023536439 -s 3 -d -1 -p AODV -e 106 -c 2 -a 0 -i 0 -k MAC
h -t 2.023536439 -s 3 -d -1 -p AODV -e 106 -c 2 -a 0 -i 0 -k MAC
r -t 2.024384921 -s 4 -d -1 -p AODV -e 48 -c 2 -a 0 -i 0 -k MAC
r -t 2.024384986 -s 8 -d -1 -p AODV -e 48 -c 2 -a 0 -i 0 -k MAC
r -t 2.024385146 -s 2 -d -1 -p AODV -e 48 -c 2 -a 0 -i 0 -k MAC
r -t 2.024409921 -s 4 -d -1 -p AODV -e 48 -c 2 -a 0 -i 0 -k RTR
r -t 2.024409986 -s 8 -d -1 -p AODV -e 48 -c 2 -a 0 -i 0 -k RTR
r -t 2.024410146 -s 2 -d -1 -p AODV -e 48 -c 2 -a 0 -i 0 -k RTR
+ -t 2.024940003 -s 0 -d -1 -p RTS -e 44 -c 2 -a 0 -i 0 -k MAC 
- -t 2.024940003 -s 0 -d -1 -p RTS -e 44 -c 2 -a 0 -i 0 -k MAC
h -t 2.024940003 -s 0 -d -1 -p RTS -e 44 -c 2 -a 0 -i 0 -k MAC
r -t 2.025292275 -s 5 -d -1 -p RTS -e 44 -c 2 -a 0 -i 0 -k MAC
+ -t 2.025302275 -s 5 -d -1 -p CTS -e 38 -c 2 -a 0 -i 0 -k MAC 
- -t 2.025302275 -s 5 -d -1 -p CTS -e 38 -c 2 -a 0 -i 0 -k MAC
h -t 2.025302275 -s 5 -d -1 -p CTS -e 38 -c 2 -a 0 -i 0 -k MAC
r -t 2.025606546 -s 0 -d -1 -p CTS -e 38 -c 2 -a 0 -i 0 -k MAC
+ -t 2.025616546 -s 0 -d 5 -p tcp -e 1098 -c 2 -a 0 -i 2 -k MAC 
- -t 2.025616546 -s 0 -d 5 -p tcp -e 1098 -c 2 -a 0 -i 2 -k MAC
h -t 2.025616546 -s 0 -d 5 -p tcp -e 1098 -c 2 -a 0 -i 2 -k MAC
+ -t 2.031183475 -s 8 -d -1 -p AODV -e 48 -c 2 -a 0 -i 0 -k RTR 
- -t 2.031183475 -s 8 -d -1 -p AODV -e 48 -c 2 -a 0 -i 0 -k RTR
h -t 2.031183475 -s 8 -d -1 -p AODV -e 48 -c 2 -a 0 -i 0 -k RTR
+ -t 2.031618475 -s 8 -d -1 -p AODV -e 106 -c 2 -a 0 -i 0 -k MAC 
- -t 2.031618475 -s 8 -d -1 -p AODV -e 106 -c 2 -a 0 -i 0 -k MAC
h -t 2.031618475 -s 8 -d -1 -p AODV -e 106 -c 2 -a 0 -i 0 -k MAC
d -t 2.031619023 -s 3 -d -1 -p AODV -e 106 -c 2 -a 0 -i 0 -k MAC
r -t 2.032467165 -s 1 -d -1 -p AODV -e 48 -c 2 -a 0 -i 0 -k MAC
r -t 2.032492165 -s 1 -d -1 -p AODV -e 48 -c 2 -a 0 -i 0 -k RTR
r -t 2.034400817 -s 5 -d 5 -p tcp -e 1040 -c 2 -a 0 -i 2 -k MAC
+ -t 2.034410817 -s 5 -d -1 -p ACK -e 38 -c 2 -a 0 -i 0 -k MAC 
- -t 2.034410817 -s 5 -d -1 -p ACK -e 38 -c 2 -a 0 -i 0 -k MAC
h -t 2.034410817 -s 5 -d -1 -p ACK -e 38 -c 2 -a 0 -i 0 -k MAC
+ -t 2.034425817 -s 5 -d 4 -p tcp -e 1040 -c 2 -a 0 -i 2 -k RTR 
- -t 2.034425817 -s 5 -d 4 -p tcp -e 1040 -c 2 -a 0 -i 2 -k RTR
h -t 2.034425817 -s 5 -d 4 -p tcp -e 1040 -c 2 -a 0 -i 2 -k RTR
r -t 2.034715089 -s 0 -d -1 -p ACK -e 38 -c 2 -a 0 -i 0 -k MAC
+ -t 2.034965089 -s 0 -d -1 -p RTS -e 44 -c 2 -a 0 -i 0 -k MAC 
- -t 2.034965089 -s 0 -d -1 -p RTS -e 44 -c 2 -a 0 -i 0 -k MAC
h -t 2.034965089 -s 0 -d -1 -p RTS -e 44 -c 2 -a 0 -i 0 -k MAC
r -t 2.035317361 -s 5 -d -1 -p RTS -e 44 -c 2 -a 0 -i 0 -k MAC
+ -t 2.035327361 -s 5 -d -1 -p CTS -e 38 -c 2 -a 0 -i 0 -k MAC 
- -t 2.035327361 -s 5 -d -1 -p CTS -e 38 -c 2 -a 0 -i 0 -k MAC
h -t 2.035327361 -s 5 -d -1 -p CTS -e 38 -c 2 -a 0 -i 0 -k MAC
r -t 2.035631633 -s 0 -d -1 -p CTS -e 38 -c 2 -a 0 -i 0 -k MAC
+ -t 2.035641633 -s 0 -d 5 -p tcp -e 1098 -c 2 -a 0 -i 3 -k MAC 
- -t 2.035641633 -s 0 -d 5 -p tcp -e 1098 -c 2 -a 0 -i 3 -k MAC
h -t 2.035641633 -s 0 -d 5 -p tcp -e 1098 -c 2 -a 0 -i 3 -k MAC
+ -t 2.036547356 -s 1 -d -1 -p AODV -e 48 -c 2 -a 0 -i 0 -k RTR 
- -t 2.036547356 -s 1 -d -1 -p AODV -e 48 -c 2 -a 0 -i 0 -k RTR
h -t 2.036547356 -s 1 -d -1 -p AODV -e 48 -c 2 -a 0 -i 0 -k RTR
+ -t 2.036722356 -s 1 -d -1 -p AODV -e 106 -c 2 -a 0 -i 0 -k MAC 
- -t 2.036722356 -s 1 -d -1 -p AODV -e 106 -c 2 -a 0 -i 0 -k MAC
h -t 2.036722356 -s 1 -d -1 -p AODV -e 106 -c 2 -a 0 -i 0 -k MAC
r -t 2.037571046 -s 8 -d -1 -p AODV -e 48 -c 2 -a 0 -i 0 -k MAC
r -t 2.037596046 -s 8 -d -1 -p AODV -e 48 -c 2 -a 0 -i 0 -k RTR
r -t 2.044425905 -s 5 -d 5 -p tcp -e 1040 -c 2 -a 0 -i 3 -k MAC
+ -t 2.044435905 -s 5 -d -1 -p ACK -e 38 -c 2 -a 0 -i 0 -k MAC 
- -t 2.044435905 -s 5 -d -1 -p ACK -e 38 -c 2 -a 0 -i 0 -k MAC
h -t 2.044435905 -s 5 -d -1 -p ACK -e 38 -c 2 -a 0 -i 0 -k MAC
+ -t 2.044450905 -s 5 -d 4 -p tcp -e 1040 -c 2 -a 0 -i 3 -k RTR 
- -t 2.044450905 -s 5 -d 4 -p tcp -e 1040 -c 2 -a 0 -i 3 -k RTR
h -t 2.044450905 -s 5 -d 4 -p tcp -e 1040 -c 2 -a 0 -i 3 -k RTR
r -t 2.044740178 -s 0 -d -1 -p ACK -e 38 -c 2 -a 0 -i 0 -k MAC
+ -t 2.044869905 -s 5 -d -1 -p RTS -e 44 -c 2 -a 0 -i 0 -k MAC 
- -t 2.044869905 -s 5 -d -1 -p RTS -e 44 -c 2 -a 0 -i 0 -k MAC
h -t 2.044869905 -s 5 -d -1 -p RTS -e 44 -c 2 -a 0 -i 0 -k MAC
r -t 2.045222724 -s 4 -d -1 -p RTS -e 44 -c 2 -a 0 -i 0 -k MAC
+ -t 2.045232724 -s 4 -d -1 -p CTS -e 38 -c 2 -a 0 -i 0 -k MAC 
- -t 2.045232724 -s 4 -d -1 -p CTS -e 38 -c 2 -a 0 -i 0 -k MAC
h -t 2.045232724 -s 4 -d -1 -p CTS -e 38 -c 2 -a 0 -i 0 -k MAC
r -t 2.045537542 -s 5 -d -1 -p CTS -e 38 -c 2 -a 0 -i 0 -k MAC
+ -t 2.045547542 -s 5 -d 4 -p tcp -e 1098 -c 2 -a 0 -i 2 -k MAC 
- -t 2.045547542 -s 5 -d 4 -p tcp -e 1098 -c 2 -a 0 -i 2 -k MAC
h -t 2.045547542 -s 5 -d 4 -p tcp -e 1098 -c 2 -a 0 -i 2 -k MAC
r -t 2.054332361 -s 4 -d 4 -p tcp -e 1040 -c 2 -a 0 -i 2 -k MAC
+ -t 2.054342361 -s 4 -d -1 -p ACK -e 38 -c 2 -a 0 -i 0 -k MAC 
- -t 2.054342361 -s 4 -d -1 -p ACK -e 38 -c 2 -a 0 -i 0 -k MAC
h -t 2.054342361 -s 4 -d -1 -p ACK -e 38 -c 2 -a 0 -i 0 -k MAC
r -t 2.054357361 -s 4 -d 4 -p tcp -e 1040 -c 2 -a 0 -i 2 -k AGT
+ -t 2.054357361 -s 4 -d -1 -p ack -e 40 -c 2 -a 0 -i 4 -k AGT 
- -t 2.054357361 -s 4 -d -1 -p ack -e 40 -c 2 -a 0 -i 4 -k AGT
h -t 2.054357361 -s 4 -d -1 -p ack -e 40 -c 2 -a 0 -i 4 -k AGT
+ -t 2.054357361 -s 4 -d 5 -p ack -e 40 -c 2 -a 0 -i 4 -k RTR 
- -t 2.054357361 -s 4 -d 5 -p ack -e 40 -c 2 -a 0 -i 4 -k RTR
h -t 2.054357361 -s 4 -d 5 -p ack -e 40 -c 2 -a 0 -i 4 -k RTR
r -t 2.054647178 -s 5 -d -1 -p ACK -e 38 -c 2 -a 0 -i 0 -k MAC
+ -t 2.054896361 -s 4 -d -1 -p RTS -e 44 -c 2 -a 0 -i 0 -k MAC 
- -t 2.054896361 -s 4 -d -1 -p RTS -e 44 -c 2 -a 0 -i 0 -k MAC
h -t 2.054896361 -s 4 -d -1 -p RTS -e 44 -c 2 -a 0 -i 0 -k MAC
r -t 2.055249178 -s 5 -d -1 -p RTS -e 44 -c 2 -a 0 -i 0 -k MAC
+ -t 2.055259178 -s 5 -d -1 -p CTS -e 38 -c 2 -a 0 -i 0 -k MAC 
- -t 2.055259178 -s 5 -d -1 -p CTS -e 38 -c 2 -a 0 -i 0 -k MAC
h -t 2.055259178 -s 5 -d -1 -p CTS -e 38 -c 2 -a 0 -i 0 -k MAC
r -t 2.055563996 -s 4 -d -1 -p CTS -e 38 -c 2 -a 0 -i 0 -k MAC
+ -t 2.055573996 -s 4 -d 5 -p ack -e 98 -c 2 -a 0 -i 4 -k MAC 
- -t 2.055573996 -s 4 -d 5 -p ack -e 98 -c 2 -a 0 -i 4 -k MAC
h -t 2.055573996 -s 4 -d 5 -p ack -e 98 -c 2 -a 0 -i 4 -k MAC
r -t 2.056358813 -s 5 -d 5 -p ack -e 40 -c 2 -a 0 -i 4 -k MAC
+ -t 2.056368813 -s 5 -d -1 -p ACK -e 38 -c 2 -a 0 -i 0 -k MAC 
- -t 2.056368813 -s 5 -d -1 -p ACK -e 38 -c 2 -a 0 -i 0 -k MAC
h -t 2.056368813 -s 5 -d -1 -p ACK -e 38 -c 2 -a 0 -i 0 -k MAC
+ -t 2.056383813 -s 5 -d 0 -p ack -e 40 -c 2 -a 0 -i 4 -k RTR 
- -t 2.056383813 -s 5 -d 0 -p ack -e 40 -c 2 -a 0 -i 4 -k RTR
h -t 2.056383813 -s 5 -d 0 -p ack -e 40 -c 2 -a 0 -i 4 -k RTR
r -t 2.056673630 -s 4 -d -1 -p ACK -e 38 -c 2 -a 0 -i 0 -k MAC
+ -t 2.057122813 -s 5 -d -1 -p RTS -e 44 -c 2 -a 0 -i 0 -k MAC 
- -t 2.057122813 -s 5 -d -1 -p RTS -e 44 -c 2 -a 0 -i 0 -k MAC
h -t 2.057122813 -s 5 -d -1 -p RTS -e 44 -c 2 -a 0 -i 0 -k MAC
r -t 2.057475630 -s 4 -d -1 -p RTS -e 44 -c 2 -a 0 -i 0 -k MAC
+ -t 2.057485630 -s 4 -d -1 -p CTS -e 38 -c 2 -a 0 -i 0 -k MAC 
- -t 2.057485630 -s 4 -d -1 -p CTS -e 38 -c 2 -a 0 -i 0 -k MAC
h -t 2.057485630 -s 4 -d -1 -p CTS -e 38 -c 2 -a 0 -i 0 -k MAC
r -t 2.057790447 -s 5 -d -1 -p CTS -e 38 -c 2 -a 0 -i 0 -k MAC
+ -t 2.057800447 -s 5 -d 4 -p tcp -e 1098 -c 2 -a 0 -i 3 -k MAC 
- -t 2.057800447 -s 5 -d 4 -p tcp -e 1098 -c 2 -a 0 -i 3 -k MAC
h -t 2.057800447 -s 5 -d 4 -p tcp -e 1098 -c 2 -a 0 -i 3 -k MAC
r -t 2.066585265 -s 4 -d 4 -p tcp -e 1040 -c 2 -a 0 -i 3 -k MAC
+ -t 2.066595265 -s 4 -d -1 -p ACK -e 38 -c 2 -a 0 -i 0 -k MAC 
- -t 2.066595265 -s 4 -d -1 -p ACK -e 38 -c 2 -a 0 -i 0 -k MAC
h -t 2.066595265 -s 4 -d -1 -p ACK -e 38 -c 2 -a 0 -i 0 -k MAC
r -t 2.066610265 -s 4 -d 4 -p tcp -e 1040 -c 2 -a 0 -i 3 -k AGT
+ -t 2.066610265 -s 4 -d -1 -p ack -e 40 -c 2 -a 0 -i 5 -k AGT 
- -t 2.066610265 -s 4 -d -1 -p ack -e 40 -c 2 -a 0 -i 5 -k AGT
h -t 2.066610265 -s 4 -d -1 -p ack -e 40 -c 2 -a 0 -i 5 -k AGT
+ -t 2.066610265 -s 4 -d 5 -p ack -e 40 -c 2 -a 0 -i 5 -k RTR 
- -t 2.066610265 -s 4 -d 5 -p ack -e 40 -c 2 -a 0 -i 5 -k RTR
h -t 2.066610265 -s 4 -d 5 -p ack -e 40 -c 2 -a 0 -i 5 -k RTR
r -t 2.066900081 -s 5 -d -1 -p ACK -e 38 -c 2 -a 0 -i 0 -k MAC
+ -t 2.067069265 -s 4 -d -1 -p RTS -e 44 -c 2 -a 0 -i 0 -k MAC 
- -t 2.067069265 -s 4 -d -1 -p RTS -e 44 -c 2 -a 0 -i 0 -k MAC
h -t 2.067069265 -s 4 -d -1 -p RTS -e 44 -c 2 -a 0 -i 0 -k MAC
r -t 2.067422081 -s 5 -d -1 -p RTS -e 44 -c 2 -a 0 -i 0 -k MAC
+ -t 2.067432081 -s 5 -d -1 -p CTS -e 38 -c 2 -a 0 -i 0 -k MAC 
- -t 2.067432081 -s 5 -d -1 -p CTS -e 38 -c 2 -a 0 -i 0 -k MAC
h -t 2.067432081 -s 5 -d -1 -p CTS -e 38 -c 2 -a 0 -i 0 -k MAC
r -t 2.067736897 -s 4 -d -1 -p CTS -e 38 -c 2 -a 0 -i 0 -k MAC
+ -t 2.067746897 -s 4 -d 5 -p ack -e 98 -c 2 -a 0 -i 5 -k MAC 
- -t 2.067746897 -s 4 -d 5 -p ack -e 98 -c 2 -a 0 -i 5 -k MAC
h -t 2.067746897 -s 4 -d 5 -p ack -e 98 -c 2 -a 0 -i 5 -k MAC
r -t 2.068531713 -s 5 -d 5 -p ack -e 40 -c 2 -a 0 -i 5 -k MAC
+ -t 2.068541713 -s 5 -d -1 -p ACK -e 38 -c 2 -a 0 -i 0 -k MAC 
- -t 2.068541713 -s 5 -d -1 -p ACK -e 38 -c 2 -a 0 -i 0 -k MAC
h -t 2.068541713 -s 5 -d -1 -p ACK -e 38 -c 2 -a 0 -i 0 -k MAC
+ -t 2.068556713 -s 5 -d 0 -p ack -e 40 -c 2 -a 0 -i 5 -k RTR 
- -t 2.068556713 -s 5 -d 0 -p ack -e 40 -c 2 -a 0 -i 5 -k RTR
h -t 2.068556713 -s 5 -d 0 -p ack -e 40 -c 2 -a 0 -i 5 -k RTR
r -t 2.068846528 -s 4 -d -1 -p ACK -e 38 -c 2 -a 0 -i 0 -k MAC
+ -t 2.069135713 -s 5 -d -1 -p RTS -e 44 -c 2 -a 0 -i 0 -k MAC 
- -t 2.069135713 -s 5 -d -1 -p RTS -e 44 -c 2 -a 0 -i 0 -k MAC
h -t 2.069135713 -s 5 -d -1 -p RTS -e 44 -c 2 -a 0 -i 0 -k MAC
r -t 2.069487987 -s 0 -d -1 -p RTS -e 44 -c 2 -a 0 -i 0 -k MAC
+ -t 2.069497987 -s 0 -d -1 -p CTS -e 38 -c 2 -a 0 -i 0 -k MAC 
- -t 2.069497987 -s 0 -d -1 -p CTS -e 38 -c 2 -a 0 -i 0 -k MAC
h -t 2.069497987 -s 0 -d -1 -p CTS -e 38 -c 2 -a 0 -i 0 -k MAC
r -t 2.069802262 -s 5 -d -1 -p CTS -e 38 -c 2 -a 0 -i 0 -k MAC
+ -t 2.069812262 -s 5 -d 0 -p ack -e 98 -c 2 -a 0 -i 4 -k MAC 
- -t 2.069812262 -s 5 -d 0 -p ack -e 98 -c 2 -a 0 -i 4 -k MAC
h -t 2.069812262 -s 5 -d 0 -p ack -e 98 -c 2 -a 0 -i 4 -k MAC
r -t 2.070596536 -s 0 -d 0 -p ack -e 40 -c 2 -a 0 -i 4 -k MAC
+ -t 2.070606536 -s 0 -d -1 -p ACK -e 38 -c 2 -a 0 -i 0 -k MAC 
- -t 2.070606536 -s 0 -d -1 -p ACK -e 38 -c 2 -a 0 -i 0 -k MAC
h -t 2.070606536 -s 0 -d -1 -p ACK -e 38 -c 2 -a 0 -i 0 -k MAC
r -t 2.070621536 -s 0 -d 0 -p ack -e 40 -c 2 -a 0 -i 4 -k AGT
+ -t 2.070621536 -s 0 -d -1 -p tcp -e 1040 -c 2 -a 0 -i 6 -k AGT 
- -t 2.070621536 -s 0 -d -1 -p tcp -e 1040 -c 2 -a 0 -i 6 -k AGT
h -t 2.070621536 -s 0 -d -1 -p tcp -e 1040 -c 2 -a 0 -i 6 -k AGT
+ -t 2.070621536 -s 0 -d -1 -p tcp -e 1040 -c 2 -a 0 -i 7 -k AGT 
- -t 2.070621536 -s 0 -d -1 -p tcp -e 1040 -c 2 -a 0 -i 7 -k AGT
h -t 2.070621536 -s 0 -d -1 -p tcp -e 1040 -c 2 -a 0 -i 7 -k AGT
+ -t 2.070621536 -s 0 -d 5 -p tcp -e 1040 -c 2 -a 0 -i 6 -k RTR 
- -t 2.070621536 -s 0 -d 5 -p tcp -e 1040 -c 2 -a 0 -i 6 -k RTR
h -t 2.070621536 -s 0 -d 5 -p tcp -e 1040 -c 2 -a 0 -i 6 -k RTR
+ -t 2.070621536 -s 0 -d 5 -p tcp -e 1040 -c 2 -a 0 -i 7 -k RTR 
- -t 2.070621536 -s 0 -d 5 -p tcp -e 1040 -c 2 -a 0 -i 7 -k RTR
h -t 2.070621536 -s 0 -d 5 -p tcp -e 1040 -c 2 -a 0 -i 7 -k RTR
r -t 2.070910811 -s 5 -d -1 -p ACK -e 38 -c 2 -a 0 -i 0 -k MAC
+ -t 2.071140811 -s 5 -d -1 -p RTS -e 44 -c 2 -a 0 -i 0 -k MAC 
- -t 2.071140811 -s 5 -d -1 -p RTS -e 44 -c 2 -a 0 -i 0 -k MAC
h -t 2.071140811 -s 5 -d -1 -p RTS -e 44 -c 2 -a 0 -i 0 -k MAC
r -t 2.071493086 -s 0 -d -1 -p RTS -e 44 -c 2 -a 0 -i 0 -k MAC
+ -t 2.071503086 -s 0 -d -1 -p CTS -e 38 -c 2 -a 0 -i 0 -k MAC 
- -t 2.071503086 -s 0 -d -1 -p CTS -e 38 -c 2 -a 0 -i 0 -k MAC
h -t 2.071503086 -s 0 -d -1 -p CTS -e 38 -c 2 -a 0 -i 0 -k MAC
r -t 2.071807361 -s 5 -d -1 -p CTS -e 38 -c 2 -a 0 -i 0 -k MAC
+ -t 2.071817361 -s 5 -d 0 -p ack -e 98 -c 2 -a 0 -i 5 -k MAC 
- -t 2.071817361 -s 5 -d 0 -p ack -e 98 -c 2 -a 0 -i 5 -k MAC
h -t 2.071817361 -s 5 -d 0 -p ack -e 98 -c 2 -a 0 -i 5 -k MAC
r -t 2.072601636 -s 0 -d 0 -p ack -e 40 -c 2 -a 0 -i 5 -k MAC
+ -t 2.072611636 -s 0 -d -1 -p ACK -e 38 -c 2 -a 0 -i 0 -k MAC 
- -t 2.072611636 -s 0 -d -1 -p ACK -e 38 -c 2 -a 0 -i 0 -k MAC
h -t 2.072611636 -s 0 -d -1 -p ACK -e 38 -c 2 -a 0 -i 0 -k MAC
r -t 2.072626636 -s 0 -d 0 -p ack -e 40 -c 2 -a 0 -i 5 -k AGT
+ -t 2.072626636 -s 0 -d -1 -p tcp -e 1040 -c 2 -a 0 -i 8 -k AGT 
- -t 2.072626636 -s 0 -d -1 -p tcp -e 1040 -c 2 -a 0 -i 8 -k AGT
h -t 2.072626636 -s 0 -d -1 -p tcp -e 1040 -c 2 -a 0 -i 8 -k AGT
+ -t 2.072626636 -s 0 -d -1 -p tcp -e 1040 -c 2 -a 0 -i 9 -k AGT 
- -t 2.072626636 -s 0 -d -1 -p tcp -e 1040 -c 2 -a 0 -i 9 -k AGT
h -t 2.072626636 -s 0 -d -1 -p tcp -e 1040 -c 2 -a 0 -i 9 -k AGT
+ -t 2.072626636 -s 0 -d 5 -p tcp -e 1040 -c 2 -a 0 -i 8 -k RTR 
- -t 2.072626636 -s 0 -d 5 -p tcp -e 1040 -c 2 -a 0 -i 8 -k RTR
h -t 2.072626636 -s 0 -d 5 -p tcp -e 1040 -c 2 -a 0 -i 8 -k RTR
+ -t 2.072626636 -s 0 -d 5 -p tcp -e 1040 -c 2 -a 0 -i 9 -k RTR 
- -t 2.072626636 -s 0 -d 5 -p tcp -e 1040 -c 2 -a 0 -i 9 -k RTR
h -t 2.072626636 -s 0 -d 5 -p tcp -e 1040 -c 2 -a 0 -i 9 -k RTR
r -t 2.072915910 -s 5 -d -1 -p ACK -e 38 -c 2 -a 0 -i 0 -k MAC
+ -t 2.073065636 -s 0 -d -1 -p RTS -e 44 -c 2 -a 0 -i 0 -k MAC 
- -t 2.073065636 -s 0 -d -1 -p RTS -e 44 -c 2 -a 0 -i 0 -k MAC
h -t 2.073065636 -s 0 -d -1 -p RTS -e 44 -c 2 -a 0 -i 0 -k MAC
r -t 2.073417910 -s 5 -d -1 -p RTS -e 44 -c 2 -a 0 -i 0 -k MAC
+ -t 2.073427910 -s 5 -d -1 -p CTS -e 38 -c 2 -a 0 -i 0 -k MAC 
- -t 2.073427910 -s 5 -d -1 -p CTS -e 38 -c 2 -a 0 -i 0 -k MAC
h -t 2.073427910 -s 5 -d -1 -p CTS -e 38 -c 2 -a 0 -i 0 -k MAC
r -t 2.073732185 -s 0 -d -1 -p CTS -e 38 -c 2 -a 0 -i 0 -k MAC
+ -t 2.073742185 -s 0 -d 5 -p tcp -e 1098 -c 2 -a 0 -i 6 -k MAC 
- -t 2.073742185 -s 0 -d 5 -p tcp -e 1098 -c 2 -a 0 -i 6 -k MAC
h -t 2.073742185 -s 0 -d 5 -p tcp -e 1098 -c 2 -a 0 -i 6 -k MAC
r -t 2.082526460 -s 5 -d 5 -p tcp -e 1040 -c 2 -a 0 -i 6 -k MAC
+ -t 2.082536460 -s 5 -d -1 -p ACK -e 38 -c 2 -a 0 -i 0 -k MAC 
- -t 2.082536460 -s 5 -d -1 -p ACK -e 38 -c 2 -a 0 -i 0 -k MAC
h -t 2.082536460 -s 5 -d -1 -p ACK -e 38 -c 2 -a 0 -i 0 -k MAC
+ -t 2.082551460 -s 5 -d 4 -p tcp -e 1040 -c 2 -a 0 -i 6 -k RTR 
- -t 2.082551460 -s 5 -d 4 -p tcp -e 1040 -c 2 -a 0 -i 6 -k RTR
h -t 2.082551460 -s 5 -d 4 -p tcp -e 1040 -c 2 -a 0 -i 6 -k RTR
r -t 2.082840736 -s 0 -d -1 -p ACK -e 38 -c 2 -a 0 -i 0 -k MAC
+ -t 2.083070460 -s 5 -d -1 -p RTS -e 44 -c 2 -a 0 -i 0 -k MAC 
- -t 2.083070460 -s 5 -d -1 -p RTS -e 44 -c 2 -a 0 -i 0 -k MAC
h -t 2.083070460 -s 5 -d -1 -p RTS -e 44 -c 2 -a 0 -i 0 -k MAC
r -t 2.083423275 -s 4 -d -1 -p RTS -e 44 -c 2 -a 0 -i 0 -k MAC
+ -t 2.083433275 -s 4 -d -1 -p CTS -e 38 -c 2 -a 0 -i 0 -k MAC 
- -t 2.083433275 -s 4 -d -1 -p CTS -e 38 -c 2 -a 0 -i 0 -k MAC
h -t 2.083433275 -s 4 -d -1 -p CTS -e 38 -c 2 -a 0 -i 0 -k MAC
r -t 2.083738089 -s 5 -d -1 -p CTS -e 38 -c 2 -a 0 -i 0 -k MAC
+ -t 2.083748089 -s 5 -d 4 -p tcp -e 1098 -c 2 -a 0 -i 6 -k MAC 
- -t 2.083748089 -s 5 -d 4 -p tcp -e 1098 -c 2 -a 0 -i 6 -k MAC
h -t 2.083748089 -s 5 -d 4 -p tcp -e 1098 -c 2 -a 0 -i 6 -k MAC
r -t 2.092532903 -s 4 -d 4 -p tcp -e 1040 -c 2 -a 0 -i 6 -k MAC
+ -t 2.092542903 -s 4 -d -1 -p ACK -e 38 -c 2 -a 0 -i 0 -k MAC 
- -t 2.092542903 -s 4 -d -1 -p ACK -e 38 -c 2 -a 0 -i 0 -k MAC
h -t 2.092542903 -s 4 -d -1 -p ACK -e 38 -c 2 -a 0 -i 0 -k MAC
r -t 2.092557903 -s 4 -d 4 -p tcp -e 1040 -c 2 -a 0 -i 6 -k AGT
+ -t 2.092557903 -s 4 -d -1 -p ack -e 40 -c 2 -a 0 -i 10 -k AGT 
- -t 2.092557903 -s 4 -d -1 -p ack -e 40 -c 2 -a 0 -i 10 -k AGT
h -t 2.092557903 -s 4 -d -1 -p ack -e 40 -c 2 -a 0 -i 10 -k AGT