M 1.00000 0 (774.20, 542.60, 0.00), (508.49, 399.37), 12.00
M 1.00000 1 (113.72, 19.84, 0.00), (264.07, 444.01), 26.00
M 1.00000 2 (585.31, 355.83, 0.00), (122.81, 599.73), 19.00
M 1.00000 3 (345.16, 263.02, 0.00), (521.52, 264.74), 36.00
M 1.00000 4 (500.10, 340.46, 0.00), (482.83, 386.74), 13.00
M 1.00000 5 (731.16, 503.15, 0.00), (340.15, 55.97), 34.00
M 1.00000 6 (26.17, 480.16, 0.00), (111.38, 5.69), 19.00
M 1.00000 7 (39.64, 495.55, 0.00), (136.77, 197.25), 18.00
M 1.00000 8 (210.31, 191.35, 0.00), (317.48, 505.79), 36.00
M 1.00000 9 (775.12, 126.40, 0.00), (609.09, 81.91), 25.00
s 2.000000000 _0_ AGT  --- 0 tcp 40 [0 0 0 0] ------- [0:0 4:0 32 0] [0 0] 0 0
r 2.000000000 _0_ RTR  --- 0 tcp 40 [0 0 0 0] ------- [0:0 4:0 32 0] [0 0] 0 0
s 2.000000000 _0_ RTR  --- 0 AODV 48 [0 0 0 0] ------- [0:255 -1:255 30 0] [0x2 1 1 [4 0] [0 4]] (REQUEST)
s 2.000115000 _0_ MAC  --- 0 AODV 106 [0 ffffffff 0 800] ------- [0:255 -1:255 30 0] [0x2 1 1 [4 0] [0 4]] (REQUEST)
r 2.000963269 _5_ MAC  --- 0 AODV 48 [0 ffffffff 0 800] ------- [0:255 -1:255 30 0] [0x2 1 1 [4 0] [0 4]] (REQUEST)
r 2.000988269 _5_ RTR  --- 0 AODV 48 [0 ffffffff 0 800] ------- [0:255 -1:255 30 0] [0x2 1 1 [4 0] [0 4]] (REQUEST)
s 2.001869496 _5_ RTR  --- 0 AODV 48 [0 ffffffff 0 800] ------- [5:255 -1:255 29 0] [0x2 2 1 [4 0] [0 4]] (REQUEST)
s 2.002264496 _5_ MAC  --- 0 AODV 106 [0 ffffffff 5 800] ------- [5:255 -1:255 29 0] [0x2 2 1 [4 0] [0 4]] (REQUEST)
r 2.003112766 _0_ MAC  --- 0 AODV 48 [0 ffffffff 5 800] ------- [5:255 -1:255 29 0] [0x2 2 1 [4 0] [0 4]] (REQUEST)
r 2.003113096 _2_ MAC  --- 0 AODV 48 [0 ffffffff 5 800] ------- [5:255 -1:255 29 0] [0x2 2 1 [4 0] [0 4]] (REQUEST)
r 2.003113320 _4_ MAC  --- 0 AODV 48 [0 ffffffff 5 800] ------- [5:255 -1:255 29 0] [0x2 2 1 [4 0] [0 4]] (REQUEST)
r 2.003137766 _0_ RTR  --- 0 AODV 48 [0 ffffffff 5 800] ------- [5:255 -1:255 29 0] [0x2 2 1 [4 0] [0 4]] (REQUEST)
r 2.003138096 _2_ RTR  --- 0 AODV 48 [0 ffffffff 5 800] ------- [5:255 -1:255 29 0] [0x2 2 1 [4 0] [0 4]] (REQUEST)
r 2.003138320 _4_ RTR  --- 0 AODV 48 [0 ffffffff 5 800] ------- [5:255 -1:255 29 0] [0x2 2 1 [4 0] [0 4]] (REQUEST)
s 2.003138320 _4_ RTR  --- 0 AODV 44 [0 0 0 0] ------- [4:255 0:255 30 5] [0x4 1 [4 4] 10.000000] (REPLY)
s 2.003393320 _4_ MAC  --- 0 ARP 86 [0 ffffffff 4 806] ------- [REQUEST 4/4 0/5]
r 2.004081566 _2_ MAC  --- 0 ARP 28 [0 ffffffff 4 806] ------- [REQUEST 4/4 0/5]
r 2.004081803 _3_ MAC  --- 0 ARP 28 [0 ffffffff 4 806] ------- [REQUEST 4/4 0/5]
r 2.004082143 _5_ MAC  --- 0 ARP 28 [0 ffffffff 4 806] ------- [REQUEST 4/4 0/5]
s 2.004497143 _5_ MAC  --- 0 RTS 44 [52e 4 5 0] 
r 2.004849966 _4_ MAC  --- 0 RTS 44 [52e 4 5 0] 
s 2.004859966 _4_ MAC  --- 0 CTS 38 [3f4 5 0 0] 
r 2.005164789 _5_ MAC  --- 0 CTS 38 [3f4 5 0 0] 
s 2.005174789 _5_ MAC  --- 0 ARP 86 [13a 4 5 806] ------- [REPLY 5/5 4/4]
r 2.005863612 _4_ MAC  --- 0 ARP 28 [13a 4 5 806] ------- [REPLY 5/5 4/4]
s 2.005873612 _4_ MAC  --- 0 ACK 38 [0 5 0 0] 
r 2.006178436 _5_ MAC  --- 0 ACK 38 [0 5 0 0] 
s 2.006267714 _2_ RTR  --- 0 AODV 48 [0 ffffffff 5 800] ------- [2:255 -1:255 28 0] [0x2 3 1 [4 0] [0 4]] (REQUEST)
s 2.006382714 _2_ MAC  --- 0 AODV 106 [0 ffffffff 2 800] ------- [2:255 -1:255 28 0] [0x2 3 1 [4 0] [0 4]] (REQUEST)
r 2.007230960 _4_ MAC  --- 0 AODV 48 [0 ffffffff 2 800] ------- [2:255 -1:255 28 0] [0x2 3 1 [4 0] [0 4]] (REQUEST)
r 2.007231313 _5_ MAC  --- 0 AODV 48 [0 ffffffff 2 800] ------- [2:255 -1:255 28 0] [0x2 3 1 [4 0] [0 4]] (REQUEST)
r 2.007231423 _3_ MAC  --- 0 AODV 48 [0 ffffffff 2 800] ------- [2:255 -1:255 28 0] [0x2 3 1 [4 0] [0 4]] (REQUEST)
r 2.007255960 _4_ RTR  --- 0 AODV 48 [0 ffffffff 2 800] ------- [2:255 -1:255 28 0] [0x2 3 1 [4 0] [0 4]] (REQUEST)
r 2.007256313 _5_ RTR  --- 0 AODV 48 [0 ffffffff 2 800] ------- [2:255 -1:255 28 0] [0x2 3 1 [4 0] [0 4]] (REQUEST)
r 2.007256423 _3_ RTR  --- 0 AODV 48 [0 ffffffff 2 800] ------- [2:255 -1:255 28 0] [0x2 3 1 [4 0] [0 4]] (REQUEST)
s 2.007400960 _4_ MAC  --- 0 RTS 44 [5ae 5 4 0] 
r 2.007753783 _5_ MAC  --- 0 RTS 44 [5ae 5 4 0] 
s 2.007763783 _5_ MAC  --- 0 CTS 38 [474 4 0 0] 
r 2.008068606 _4_ MAC  --- 0 CTS 38 [474 4 0 0] 
s 2.008078606 _4_ MAC  --- 0 AODV 102 [13a 5 4 800] ------- [4:255 0:255 30 5] [0x4 1 [4 4] 10.000000] (REPLY)
r 2.008895428 _5_ MAC  --- 0 AODV 44 [13a 5 4 800] ------- [4:255 0:255 30 5] [0x4 1 [4 4] 10.000000] (REPLY)
s 2.008905428 _5_ MAC  --- 0 ACK 38 [0 4 0 0] 
r 2.008920428 _5_ RTR  --- 0 AODV 44 [13a 5 4 800] ------- [4:255 0:255 30 5] [0x4 1 [4 4] 10.000000] (REPLY)
f 2.008920428 _5_ RTR  --- 0 AODV 44 [13a 5 4 800] ------- [4:255 0:255 29 0] [0x4 2 [4 4] 10.000000] (REPLY)
r 2.009210251 _4_ MAC  --- 0 ACK 38 [0 4 0 0] 
s 2.009619428 _5_ MAC  --- 0 ARP 86 [0 ffffffff 5 806] ------- [REQUEST 5/5 0/0]
r 2.010307699 _0_ MAC  --- 0 ARP 28 [0 ffffffff 5 806] ------- [REQUEST 5/5 0/0]
r 2.010308028 _2_ MAC  --- 0 ARP 28 [0 ffffffff 5 806] ------- [REQUEST 5/5 0/0]
r 2.010308251 _4_ MAC  --- 0 ARP 28 [0 ffffffff 5 806] ------- [REQUEST 5/5 0/0]
s 2.010842699 _0_ MAC  --- 0 RTS 44 [52e 5 0 0] 
r 2.011194969 _5_ MAC  --- 0 RTS 44 [52e 5 0 0] 
s 2.011204969 _5_ MAC  --- 0 CTS 38 [3f4 0 0 0] 
r 2.011509239 _0_ MAC  --- 0 CTS 38 [3f4 0 0 0] 
s 2.011519239 _0_ MAC  --- 0 ARP 86 [13a 5 0 806] ------- [REPLY 0/0 5/5]
r 2.012207509 _5_ MAC  --- 0 ARP 28 [13a 5 0 806] ------- [REPLY 0/0 5/5]
s 2.012217509 _5_ MAC  --- 0 ACK 38 [0 0 0 0] 
r 2.012521780 _0_ MAC  --- 0 ACK 38 [0 0 0 0] 
s 2.012911509 _5_ MAC  --- 0 RTS 44 [5ae 0 5 0] 
r 2.013263780 _0_ MAC  --- 0 RTS 44 [5ae 0 5 0] 
s 2.013273780 _0_ MAC  --- 0 CTS 38 [474 5 0 0] 
r 2.013578050 _5_ MAC  --- 0 CTS 38 [474 5 0 0] 
s 2.013588050 _5_ MAC  --- 0 AODV 102 [13a 0 5 800] ------- [4:255 0:255 29 0] [0x4 2 [4 4] 10.000000] (REPLY)
s 2.013657099 _3_ RTR  --- 0 AODV 48 [0 ffffffff 2 800] ------- [3:255 -1:255 27 0] [0x2 4 1 [4 0] [0 4]] (REQUEST)
r 2.014404320 _0_ MAC  --- 0 AODV 44 [13a 0 5 800] ------- [4:255 0:255 29 0] [0x4 2 [4 4] 10.000000] (REPLY)
s 2.014414320 _0_ MAC  --- 0 ACK 38 [0 5 0 0] 
r 2.014429320 _0_ RTR  --- 0 AODV 44 [13a 0 5 800] ------- [4:255 0:255 29 0] [0x4 2 [4 4] 10.000000] (REPLY)
s 2.014429320 _0_ RTR  --- 0 tcp 40 [0 0 0 0] ------- [0:0 4:0 30 5] [0 0] 0 0
r 2.014718591 _5_ MAC  --- 0 ACK 38 [0 5 0 0] 
s 2.014988320 _0_ MAC  --- 0 RTS 44 [58e 5 0 0] 
r 2.015340591 _5_ MAC  --- 0 RTS 44 [58e 5 0 0] 
s 2.015350591 _5_ MAC  --- 0 CTS 38 [454 0 0 0] 
r 2.015654862 _0_ MAC  --- 0 CTS 38 [454 0 0 0] 
s 2.015664862 _0_ MAC  --- 0 tcp 98 [13a 5 0 800] ------- [0:0 4:0 30 5] [0 0] 0 0
r 2.016449132 _5_ MAC  --- 0 tcp 40 [13a 5 0 800] ------- [0:0 4:0 30 5] [0 0] 1 0
s 2.016459132 _5_ MAC  --- 0 ACK 38 [0 0 0 0] 
r 2.016474132 _5_ RTR  --- 0 tcp 40 [13a 5 0 800] ------- [0:0 4:0 30 5] [0 0] 1 0
f 2.016474132 _5_ RTR  --- 0 tcp 40 [13a 5 0 800] ------- [0:0 4:0 29 4] [0 0] 1 0
r 2.016763403 _0_ MAC  --- 0 ACK 38 [0 0 0 0] 
s 2.017053132 _5_ MAC  --- 0 RTS 44 [58e 4 5 0] 
r 2.017405954 _4_ MAC  --- 0 RTS 44 [58e 4 5 0] 
s 2.017415954 _4_ MAC  --- 0 CTS 38 [454 5 0 0] 
r 2.017720776 _5_ MAC  --- 0 CTS 38 [454 5 0 0] 
s 2.017730776 _5_ MAC  --- 0 tcp 98 [13a 4 5 800] ------- [0:0 4:0 29 4] [0 0] 1 0
r 2.018515597 _4_ MAC  --- 0 tcp 40 [13a 4 5 800] ------- [0:0 4:0 29 4] [0 0] 2 0
s 2.018525597 _4_ MAC  --- 0 ACK 38 [0 5 0 0] 
r 2.018540597 _4_ AGT  --- 0 tcp 40 [13a 4 5 800] ------- [0:0 4:0 29 4] [0 0] 2 0
s 2.018540597 _4_ AGT  --- 1 ack 40 [0 0 0 0] ------- [4:0 0:0 32 0] [0 0] 0 0
r 2.018540597 _4_ RTR  --- 1 ack 40 [0 0 0 0] ------- [4:0 0:0 32 0] [0 0] 0 0
s 2.018540597 _4_ RTR  --- 1 ack 40 [0 0 0 0] ------- [4:0 0:0 30 5] [0 0] 0 0
r 2.018830419 _5_ MAC  --- 0 ACK 38 [0 5 0 0] 
s 2.019059597 _4_ MAC  --- 0 RTS 44 [58e 5 4 0] 
r 2.019412419 _5_ MAC  --- 0 RTS 44 [58e 5 4 0] 
s 2.019422419 _5_ MAC  --- 0 CTS 38 [454 4 0 0] 
r 2.019727240 _4_ MAC  --- 0 CTS 38 [454 4 0 0] 
s 2.019737240 _4_ MAC  --- 1 ack 98 [13a 5 4 800] ------- [4:0 0:0 30 5] [0 0] 0 0
r 2.020522062 _5_ MAC  --- 1 ack 40 [13a 5 4 800] ------- [4:0 0:0 30 5] [0 0] 1 0
s 2.020532062 _5_ MAC  --- 0 ACK 38 [0 4 0 0] 
r 2.020547062 _5_ RTR  --- 1 ack 40 [13a 5 4 800] ------- [4:0 0:0 30 5] [0 0] 1 0
f 2.020547062 _5_ RTR  --- 1 ack 40 [13a 5 4 800] ------- [4:0 0:0 29 0] [0 0] 1 0
r 2.020836883 _4_ MAC  --- 0 ACK 38 [0 4 0 0] 
s 2.021306062 _5_ MAC  --- 0 RTS 44 [58e 0 5 0] 
r 2.021658333 _0_ MAC  --- 0 RTS 44 [58e 0 5 0] 
s 2.021668333 _0_ MAC  --- 0 CTS 38 [454 5 0 0] 
r 2.021972604 _5_ MAC  --- 0 CTS 38 [454 5 0 0] 
s 2.021982604 _5_ MAC  --- 1 ack 98 [13a 0 5 800] ------- [4:0 0:0 29 0] [0 0] 1 0
r 2.022766875 _0_ MAC  --- 1 ack 40 [13a 0 5 800] ------- [4:0 0:0 29 0] [0 0] 2 0
s 2.022776875 _0_ MAC  --- 0 ACK 38 [0 5 0 0] 
r 2.022791875 _0_ AGT  --- 1 ack 40 [13a 0 5 800] ------- [4:0 0:0 29 0] [0 0] 2 0
s 2.022791875 _0_ AGT  --- 2 tcp 1040 [0 0 0 0] ------- [0:0 4:0 32 0] [1 0] 0 0
r 2.022791875 _0_ RTR  --- 2 tcp 1040 [0 0 0 0] ------- [0:0 4:0 32 0] [1 0] 0 0
s 2.022791875 _0_ AGT  --- 3 tcp 1040 [0 0 0 0] ------- [0:0 4:0 32 0] [2 0] 0 0
r 2.022791875 _0_ RTR  --- 3 tcp 1040 [0 0 0 0] ------- [0:0 4:0 32 0] [2 0] 0 0
s 2.022791875 _0_ RTR  --- 2 tcp 1040 [0 0 0 0] ------- [0:0 4:0 30 5] [1 0] 0 0
s 2.022791875 _0_ RTR  --- 3 tcp 1040 [0 0 0 0] ------- [0:0 4:0 30 5] [2 0] 0 0
r 2.023081146 _5_ MAC  --- 0 ACK 38 [0 5 0 0] 
s 2.023536439 _3_ MAC  --- 0 AODV 106 [0 ffffffff 3 800] ------- [3:255 -1:255 27 0] [0x2 4 1 [4 0] [0 4]] (REQUEST)
r 2.024384921 _4_ MAC  --- 0 AODV 48 [0 ffffffff 3 800] ------- [3:255 -1:255 27 0] [0x2 4 1 [4 0] [0 4]] (REQUEST)
r 2.024384986 _8_ MAC  --- 0 AODV 48 [0 ffffffff 3 800] ------- [3:255 -1:255 27 0] [0x2 4 1 [4 0] [0 4]] (REQUEST)
r 2.024385146 _2_ MAC  --- 0 AODV 48 [0 ffffffff 3 800] ------- [3:255 -1:255 27 0] [0x2 4 1 [4 0] [0 4]] (REQUEST)
r 2.024409921 _4_ RTR  --- 0 AODV 48 [0 ffffffff 3 800] ------- [3:255 -1:255 27 0] [0x2 4 1 [4 0] [0 4]] (REQUEST)
r 2.024409986 _8_ RTR  --- 0 AODV 48 [0 ffffffff 3 800] ------- [3:255 -1:255 27 0] [0x2 4 1 [4 0] [0 4]] (REQUEST)
r 2.024410146 _2_ RTR  --- 0 AODV 48 [0 ffffffff 3 800] ------- [3:255 -1:255 27 0] [0x2 4 1 [4 0] [0 4]] (REQUEST)
s 2.024940003 _0_ MAC  --- 0 RTS 44 [24ce 5 0 0] 
r 2.025292275 _5_ MAC  --- 0 RTS 44 [24ce 5 0 0] 
s 2.025302275 _5_ MAC  --- 0 CTS 38 [2394 0 0 0] 
r 2.025606546 _0_ MAC  --- 0 CTS 38 [2394 0 0 0] 
s 2.025616546 _0_ MAC  --- 2 tcp 1098 [13a 5 0 800] ------- [0:0 4:0 30 5] [1 0] 0 0
s 2.031183475 _8_ RTR  --- 0 AODV 48 [0 ffffffff 3 800] ------- [8:255 -1:255 26 0] [0x2 5 1 [4 0] [0 4]] (REQUEST)
s 2.031618475 _8_ MAC  --- 0 AODV 106 [0 ffffffff 8 800] ------- [8:255 -1:255 26 0] [0x2 5 1 [4 0] [0 4]] (REQUEST)
D 2.031619023 _3_ MAC  COL 0 AODV 106 [0 ffffffff 8 800] ------- [8:255 -1:255 26 0] [0x2 5 1 [4 0] [0 4]] (REQUEST)
r 2.032467165 _1_ MAC  --- 0 AODV 48 [0 ffffffff 8 800] ------- [8:255 -1:255 26 0] [0x2 5 1 [4 0] [0 4]] (REQUEST)
r 2.032492165 _1_ RTR  --- 0 AODV 48 [0 ffffffff 8 800] ------- [8:255 -1:255 26 0] [0x2 5 1 [4 0] [0 4]] (REQUEST)
r 2.034400817 _5_ MAC  --- 2 tcp 1040 [13a 5 0 800] ------- [0:0 4:0 30 5] [1 0] 1 0
s 2.034410817 _5_ MAC  --- 0 ACK 38 [0 0 0 0] 
r 2.034425817 _5_ RTR  --- 2 tcp 1040 [13a 5 0 800] ------- [0:0 4:0 30 5] [1 0] 1 0
f 2.034425817 _5_ RTR  --- 2 tcp 1040 [13a 5 0 800] ------- [0:0 4:0 29 4] [1 0] 1 0
r 2.034715089 _0_ MAC  --- 0 ACK 38 [0 0 0 0] 
s 2.034965089 _0_ MAC  --- 0 RTS 44 [24ce 5 0 0] 
r 2.035317361 _5_ MAC  --- 0 RTS 44 [24ce 5 0 0] 
s 2.035327361 _5_ MAC  --- 0 CTS 38 [2394 0 0 0] 
r 2.035631633 _0_ MAC  --- 0 CTS 38 [2394 0 0 0] 
s 2.035641633 _0_ MAC  --- 3 tcp 1098 [13a 5 0 800] ------- [0:0 4:0 30 5] [2 0] 0 0
s 2.036547356 _1_ RTR  --- 0 AODV 48 [0 ffffffff 8 800] ------- [1:255 -1:255 25 0] [0x2 6 1 [4 0] [0 4]] (REQUEST)
s 2.036722356 _1_ MAC  --- 0 AODV 106 [0 ffffffff 1 800] ------- [1:255 -1:255 25 0] [0x2 6 1 [4 0] [0 4]] (REQUEST)
r 2.037571046 _8_ MAC  --- 0 AODV 48 [0 ffffffff 1 800] ------- [1:255 -1:255 25 0] [0x2 6 1 [4 0] [0 4]] (REQUEST)
r 2.037596046 _8_ RTR  --- 0 AODV 48 [0 ffffffff 1 800] ------- [1:255 -1:255 25 0] [0x2 6 1 [4 0] [0 4]] (REQUEST)
r 2.044425905 _5_ MAC  --- 3 tcp 1040 [13a 5 0 800] ------- [0:0 4:0 30 5] [2 0] 1 0
s 2.044435905 _5_ MAC  --- 0 ACK 38 [0 0 0 0] 
r 2.044450905 _5_ RTR  --- 3 tcp 1040 [13a 5 0 800] ------- [0:0 4:0 30 5] [2 0] 1 0
f 2.044450905 _5_ RTR  --- 3 tcp 1040 [13a 5 0 800] ------- [0:0 4:0 29 4] [2 0] 1 0
r 2.044740178 _0_ MAC  --- 0 ACK 38 [0 0 0 0] 
s 2.044869905 _5_ MAC  --- 0 RTS 44 [24ce 4 5 0] 
r 2.045222724 _4_ MAC  --- 0 RTS 44 [24ce 4 5 0] 
s 2.045232724 _4_ MAC  --- 0 CTS 38 [2394 5 0 0] 
r 2.045537542 _5_ MAC  --- 0 CTS 38 [2394 5 0 0] 
s 2.045547542 _5_ MAC  --- 2 tcp 1098 [13a 4 5 800] ------- [0:0 4:0 29 4] [1 0] 1 0
r 2.054332361 _4_ MAC  --- 2 tcp 1040 [13a 4 5 800] ------- [0:0 4:0 29 4] [1 0] 2 0
s 2.054342361 _4_ MAC  --- 0 ACK 38 [0 5 0 0] 
r 2.054357361 _4_ AGT  --- 2 tcp 1040 [13a 4 5 800] ------- [0:0 4:0 29 4] [1 0] 2 0
s 2.054357361 _4_ AGT  --- 4 ack 40 [0 0 0 0] ------- [4:0 0:0 32 0] [1 0] 0 0
r 2.054357361 _4_ RTR  --- 4 ack 40 [0 0 0 0] ------- [4:0 0:0 32 0] [1 0] 0 0
s 2.054357361 _4_ RTR  --- 4 ack 40 [0 0 0 0] ------- [4:0 0:0 30 5] [1 0] 0 0
r 2.054647178 _5_ MAC  --- 0 ACK 38 [0 5 0 0] 
s 2.054896361 _4_ MAC  --- 0 RTS 44 [58e 5 4 0] 
r 2.055249178 _5_ MAC  --- 0 RTS 44 [58e 5 4 0] 
s 2.055259178 _5_ MAC  --- 0 CTS 38 [454 4 0 0] 
r 2.055563996 _4_ MAC  --- 0 CTS 38 [454 4 0 0] 
s 2.055573996 _4_ MAC  --- 4 ack 98 [13a 5 4 800] ------- [4:0 0:0 30 5] [1 0] 0 0
r 2.056358813 _5_ MAC  --- 4 ack 40 [13a 5 4 800] ------- [4:0 0:0 30 5] [1 0] 1 0
s 2.056368813 _5_ MAC  --- 0 ACK 38 [0 4 0 0] 
r 2.056383813 _5_ RTR  --- 4 ack 40 [13a 5 4 800] ------- [4:0 0:0 30 5] [1 0] 1 0
f 2.056383813 _5_ RTR  --- 4 ack 40 [13a 5 4 800] ------- [4:0 0:0 29 0] [1 0] 1 0
r 2.056673630 _4_ MAC  --- 0 ACK 38 [0 4 0 0] 
s 2.057122813 _5_ MAC  --- 0 RTS 44 [24ce 4 5 0] 
r 2.057475630 _4_ MAC  --- 0 RTS 44 [24ce 4 5 0] 
s 2.057485630 _4_ MAC  --- 0 CTS 38 [2394 5 0 0] 
r 2.057790447 _5_ MAC  --- 0 CTS 38 [2394 5 0 0] 
s 2.057800447 _5_ MAC  --- 3 tcp 1098 [13a 4 5 800] ------- [0:0 4:0 29 4] [2 0] 1 0
r 2.066585265 _4_ MAC  --- 3 tcp 1040 [13a 4 5 800] ------- [0:0 4:0 29 4] [2 0] 2 0
s 2.066595265 _4_ MAC  --- 0 ACK 38 [0 5 0 0] 
r 2.066610265 _4_ AGT  --- 3 tcp 1040 [13a 4 5 800] ------- [0:0 4:0 29 4] [2 0] 2 0
s 2.066610265 _4_ AGT  --- 5 ack 40 [0 0 0 0] ------- [4:0 0:0 32 0] [2 0] 0 0
r 2.066610265 _4_ RTR  --- 5 ack 40 [0 0 0 0] ------- [4:0 0:0 32 0] [2 0] 0 0
s 2.066610265 _4_ RTR  --- 5 ack 40 [0 0 0 0] ------- [4:0 0:0 30 5] [2 0] 0 0
r 2.066900081 _5_ MAC  --- 0 ACK 38 [0 5 0 0] 
s 2.067069265 _4_ MAC  --- 0 RTS 44 [58e 5 4 0] 
r 2.067422081 _5_ MAC  --- 0 RTS 44 [58e 5 4 0] 
s 2.067432081 _5_ MAC  --- 0 CTS 38 [454 4 0 0] 
r 2.067736897 _4_ MAC  --- 0 CTS 38 [454 4 0 0] 
s 2.067746897 _4_ MAC  --- 5 ack 98 [13a 5 4 800] ------- [4:0 0:0 30 5] [2 0] 0 0
r 2.068531713 _5_ MAC  --- 5 ack 40 [13a 5 4 800] ------- [4:0 0:0 30 5] [2 0] 1 0
s 2.068541713 _5_ MAC  --- 0 ACK 38 [0 4 0 0] 
r 2.068556713 _5_ RTR  --- 5 ack 40 [13a 5 4 800] ------- [4:0 0:0 30 5] [2 0] 1 0
f 2.068556713 _5_ RTR  --- 5 ack 40 [13a 5 4 800] ------- [4:0 0:0 29 0] [2 0] 1 0
r 2.068846528 _4_ MAC  --- 0 ACK 38 [0 4 0 0] 
s 2.069135713 _5_ MAC  --- 0 RTS 44 [58e 0 5 0] 
r 2.069487987 _0_ MAC  --- 0 RTS 44 [58e 0 5 0] 
s 2.069497987 _0_ MAC  --- 0 CTS 38 [454 5 0 0] 
r 2.069802262 _5_ MAC  --- 0 CTS 38 [454 5 0 0] 
s 2.069812262 _5_ MAC  --- 4 ack 98 [13a 0 5 800] ------- [4:0 0:0 29 0] [1 0] 1 0
r 2.070596536 _0_ MAC  --- 4 ack 40 [13a 0 5 800] ------- [4:0 0:0 29 0] [1 0] 2 0
s 2.070606536 _0_ MAC  --- 0 ACK 38 [0 5 0 0] 
r 2.070621536 _0_ AGT  --- 4 ack 40 [13a 0 5 800] ------- [4:0 0:0 29 0] [1 0] 2 0
s 2.070621536 _0_ AGT  --- 6 tcp 1040 [0 0 0 0] ------- [0:0 4:0 32 0] [3 0] 0 0
r 2.070621536 _0_ RTR  --- 6 tcp 1040 [0 0 0 0] ------- [0:0 4:0 32 0] [3 0] 0 0
s 2.070621536 _0_ AGT  --- 7 tcp 1040 [0 0 0 0] ------- [0:0 4:0 32 0] [4 0] 0 0
r 2.070621536 _0_ RTR  --- 7 tcp 1040 [0 0 0 0] ------- [0:0 4:0 32 0] [4 0] 0 0
s 2.070621536 _0_ RTR  --- 6 tcp 1040 [0 0 0 0] ------- [0:0 4:0 30 5] [3 0] 0 0
s 2.070621536 _0_ RTR  --- 7 tcp 1040 [0 0 0 0] ------- [0:0 4:0 30 5] [4 0] 0 0
r 2.070910811 _5_ MAC  --- 0 ACK 38 [0 5 0 0] 
s 2.071140811 _5_ MAC  --- 0 RTS 44 [58e 0 5 0] 
r 2.071493086 _0_ MAC  --- 0 RTS 44 [58e 0 5 0] 
s 2.071503086 _0_ MAC  --- 0 CTS 38 [454 5 0 0] 
r 2.071807361 _5_ MAC  --- 0 CTS 38 [454 5 0 0] 
s 2.071817361 _5_ MAC  --- 5 ack 98 [13a 0 5 800] ------- [4:0 0:0 29 0] [2 0] 1 0
r 2.072601636 _0_ MAC  --- 5 ack 40 [13a 0 5 800] ------- [4:0 0:0 29 0] [2 0] 2 0
s 2.072611636 _0_ MAC  --- 0 ACK 38 [0 5 0 0] 
r 2.072626636 _0_ AGT  --- 5 ack 40 [13a 0 5 800] ------- [4:0 0:0 29 0] [2 0] 2 0
s 2.072626636 _0_ AGT  --- 8 tcp 1040 [0 0 0 0] ------- [0:0 4:0 32 0] [5 0] 0 0
r 2.072626636 _0_ RTR  --- 8 tcp 1040 [0 0 0 0] ------- [0:0 4:0 32 0] [5 0] 0 0
s 2.072626636 _0_ AGT  --- 9 tcp 1040 [0 0 0 0] ------- [0:0 4:0 32 0] [6 0] 0 0
r 2.072626636 _0_ RTR  --- 9 tcp 1040 [0 0 0 0] ------- [0:0 4:0 32 0] [6 0] 0 0
s 2.072626636 _0_ RTR  --- 8 tcp 1040 [0 0 0 0] ------- [0:0 4:0 30 5] [5 0] 0 0
s 2.072626636 _0_ RTR  --- 9 tcp 1040 [0 0 0 0] ------- [0:0 4:0 30 5] [6 0] 0 0
r 2.072915910 _5_ MAC  --- 0 ACK 38 [0 5 0 0] 
s 2.073065636 _0_ MAC  --- 0 RTS 44 [24ce 5 0 0] 
r 2.073417910 _5_ MAC  --- 0 RTS 44 [24ce 5 0 0] 
s 2.073427910 _5_ MAC  --- 0 CTS 38 [2394 0 0 0] 
r 2.073732185 _0_ MAC  --- 0 CTS 38 [2394 0 0 0] 
s 2.073742185 _0_ MAC  --- 6 tcp 1098 [13a 5 0 800] ------- [0:0 4:0 30 5] [3 0] 0 0
r 2.082526460 _5_ MAC  --- 6 tcp 1040 [13a 5 0 800] ------- [0:0 4:0 30 5] [3 0] 1 0
s 2.082536460 _5_ MAC  --- 0 ACK 38 [0 0 0 0] 
r 2.082551460 _5_ RTR  --- 6 tcp 1040 [13a 5 0 800] ------- [0:0 4:0 30 5] [3 0] 1 0
f 2.082551460 _5_ RTR  --- 6 tcp 1040 [13a 5 0 800] ------- [0:0 4:0 29 4] [3 0] 1 0
r 2.082840736 _0_ MAC  --- 0 ACK 38 [0 0 0 0] 
s 2.083070460 _5_ MAC  --- 0 RTS 44 [24ce 4 5 0] 
r 2.083423275 _4_ MAC  --- 0 RTS 44 [24ce 4 5 0] 
s 2.083433275 _4_ MAC  --- 0 CTS 38 [2394 5 0 0] 
r 2.083738089 _5_ MAC  --- 0 CTS 38 [2394 5 0 0] 
s 2.083748089 _5_ MAC  --- 6 tcp 1098 [13a 4 5 800] ------- [0:0 4:0 29 4] [3 0] 1 0
r 2.092532903 _4_ MAC  --- 6 tcp 1040 [13a 4 5 800] ------- [0:0 4:0 29 4] [3 0] 2 0
s 2.092542903 _4_ MAC  --- 0 ACK 38 [0 5 0 0] 
r 2.092557903 _4_ AGT  --- 6 tcp 1040 [13a 4 5 800] ------- [0:0 4:0 29 4] [3 0] 2 0
s 2.092557903 _4_ AGT  --- 10 ack 40 [0 0 0 0] ------- [4:0 0:0 32 0] [3 0] 0 0
r 2.092557903 _4_ RTR  --- 10 ack 40 [0 0 0 0] ------- [4:0 0:0 32 0] [3 0] 0 0
s 2.092557903 _4_ RTR  --- 10 ack 40 [0 0 0 0] ------- [4:0 0:0 30 5] [3 0] 0 0
r 2.092847716 _5_ MAC  --- 0 ACK 38 [0 5 0 0] 
s 2.093056903 _4_ MAC  --- 0 RTS 44 [58e 5 4 0] 
r 2.093409716 _5_ MAC  --- 0 RTS 44 [58e 5 4 0] 
s 2.093419716 _5_ MAC  --- 0 CTS 38 [454 4 0 0] 
r 2.093724529 _4_ MAC  --- 0 CTS 38 [454 4 0 0] 
s 2.093734529 _4_ MAC  --- 10 ack 98 [13a 5 4 800] ------- [4:0 0:0 30 5] [3 0] 0 0
r 2.094519342 _5_ MAC  --- 10 ack 40 [13a 5 4 800] ------- [4:0 0:0 30 5] [3 0] 1 0
s 2.094529342 _5_ MAC  --- 0 ACK 38 [0 4 0 0] 
r 2.094544342 _5_ RTR  --- 10 ack 40 [13a 5 4 800] ------- [4:0 0:0 30 5] [3 0] 1 0
f 2.094544342 _5_ RTR  --- 10 ack 40 [13a 5 4 800] ------- [4:0 0:0 29 0] [3 0] 1 0
r 2.094834155 _4_ MAC  --- 0 ACK 38 [0 4 0 0] 
s 2.095103342 _5_ MAC  --- 0 RTS 44 [58e 0 5 0] 
r 2.095455619 _0_ MAC  --- 0 RTS 44 [58e 0 5 0] 
s 2.095465619 _0_ MAC  --- 0 CTS 38 [454 5 0 0] 
r 2.095769895 _5_ MAC  --- 0 CTS 38 [454 5 0 0] 
s 2.095779895 _5_ MAC  --- 10 ack 98 [13a 0 5 800] ------- [4:0 0:0 29 0] [3 0] 1 0
r 2.096564172 _0_ MAC  --- 10 ack 40 [13a 0 5 800] ------- [4:0 0:0 29 0] [3 0] 2 0
s 2.096574172 _0_ MAC  --- 0 ACK 38 [0 5 0 0] 
r 2.096589172 _0_ AGT  --- 10 ack 40 [13a 0 5 800] ------- [4:0 0:0 29 0] [3 0] 2 0
s 2.096589172 _0_ AGT  --- 11 tcp 1040 [0 0 0 0] ------- [0:0 4:0 32 0] [7 0] 0 0
r 2.096589172 _0_ RTR  --- 11 tcp 1040 [0 0 0 0] ------- [0:0 4:0 32 0] [7 0] 0 0
s 2.096589172 _0_ AGT  --- 12 tcp 1040 [0 0 0 0] ------- [0:0 4:0 32 0] [8 0] 0 0
r 2.096589172 _0_ RTR  --- 12 tcp 1040 [0 0 0 0] ------- [0:0 4:0 32 0] [8 0] 0 0
s 2.096589172 _0_ RTR  --- 11 tcp 1040 [0 0 0 0] ------- [0:0 4:0 30 5] [7 0] 0 0
s 2.096589172 _0_ RTR  --- 12 tcp 1040 [0 0 0 0] ------- [0:0 4:0 30 5] [8 0] 0 0
r 2.096878448 _5_ MAC  --- 0 ACK 38 [0 5 0 0] 
s 2.097068172 _0_ MAC  --- 0 RTS 44 [24ce 5 0 0] 
r 2.097420448 _5_ MAC  --- 0 RTS 44 [24ce 5 0 0] 
s 2.097430448 _5_ MAC  --- 0 CTS 38 [2394 0 0 0] 
r 2.097734725 _0_ MAC  --- 0 CTS 38 [2394 0 0 0] 
s 2.097744725 _0_ MAC  --- 7 tcp 1098 [13a 5 0 800] ------- [0:0 4:0 30 5] [4 0] 0 0
r 2.106529002 _5_ MAC  --- 7 tcp 1040 [13a 5 0 800] ------- [0:0 4:0 30 5] [4 0] 1 0
s 2.106539002 _5_ MAC  --- 0 ACK 38 [0 0 0 0] 
r 2.106554002 _5_ RTR  --- 7 tcp 1040 [13a 5 0 800] ------- [0:0 4:0 30 5] [4 0] 1 0
f 2.106554002 _5_ RTR  --- 7 tcp 1040 [13a 5 0 800] ------- [0:0 4:0 29 4] [4 0] 1 0
r 2.106843279 _0_ MAC  --- 0 ACK 38 [0 0 0 0] 
s 2.106913002 _5_ MAC  --- 0 RTS 44 [24ce 4 5 0] 
r 2.107265813 _4_ MAC  --- 0 RTS 44 [24ce 4 5 0] 
s 2.107275813 _4_ MAC  --- 0 CTS 38 [2394 5 0 0] 
r 2.107580625 _5_ MAC  --- 0 CTS 38 [2394 5 0 0] 
s 2.107590625 _5_ MAC  --- 7 tcp 1098 [13a 4 5 800] ------- [0:0 4:0 29 4] [4 0] 1 0
r 2.116375436 _4_ MAC  --- 7 tcp 1040 [13a 4 5 800] ------- [0:0 4:0 29 4] [4 0] 2 0
s 2.116385436 _4_ MAC  --- 0 ACK 38 [0 5 0 0] 
r 2.116400436 _4_ AGT  --- 7 tcp 1040 [13a 4 5 800] ------- [0:0 4:0 29 4] [4 0] 2 0
s 2.116400436 _4_ AGT  --- 13 ack 40 [0 0 0 0] ------- [4:0 0:0 32 0] [4 0] 0 0
r 2.116400436 _4_ RTR  --- 13 ack 40 [0 0 0 0] ------- [4:0 0:0 32 0] [4 0] 0 0
s 2.116400436 _4_ RTR  --- 13 ack 40 [0 0 0 0] ------- [4:0 0:0 30 5] [4 0] 0 0
r 2.116690247 _5_ MAC  --- 0 ACK 38 [0 5 0 0] 
s 2.116859436 _4_ MAC  --- 0 RTS 44 [58e 5 4 0] 
r 2.117212247 _5_ MAC  --- 0 RTS 44 [58e 5 4 0] 
s 2.117222247 _5_ MAC  --- 0 CTS 38 [454 4 0 0] 
r 2.117527057 _4_ MAC  --- 0 CTS 38 [454 4 0 0] 
s 2.117537057 _4_ MAC  --- 13 ack 98 [13a 5 4 800] ------- [4:0 0:0 30 5] [4 0] 0 0
r 2.118321867 _5_ MAC  --- 13 ack 40 [13a 5 4 800] ------- [4:0 0:0 30 5] [4 0] 1 0
s 2.118331867 _5_ MAC  --- 0 ACK 38 [0 4 0 0] 
r 2.118346867 _5_ RTR  --- 13 ack 40 [13a 5 4 800] ------- [4:0 0:0 30 5] [4 0] 1 0
f 2.118346867 _5_ RTR  --- 13 ack 40 [13a 5 4 800] ------- [4:0 0:0 29 0] [4 0] 1 0
r 2.118636677 _4_ MAC  --- 0 ACK 38 [0 4 0 0] 
s 2.118936135 _0_ MAC  --- 0 RTS 44 [24ce 5 0 0] 
r 2.119288414 _5_ MAC  --- 0 RTS 44 [24ce 5 0 0] 
s 2.119298414 _5_ MAC  --- 0 CTS 38 [2394 0 0 0] 
r 2.119602692 _0_ MAC  --- 0 CTS 38 [2394 0 0 0] 
s 2.119612692 _0_ MAC  --- 8 tcp 1098 [13a 5 0 800] ------- [0:0 4:0 30 5] [5 0] 0 0
r 2.128396971 _5_ MAC  --- 8 tcp 1040 [13a 5 0 800] ------- [0:0 4:0 30 5] [5 0] 1 0
s 2.128406971 _5_ MAC  --- 0 ACK 38 [0 0 0 0] 
r 2.128421971 _5_ RTR  --- 8 tcp 1040 [13a 5 0 800] ------- [0:0 4:0 30 5] [5 0] 1 0
f 2.128421971 _5_ RTR  --- 8 tcp 1040 [13a 5 0 800] ------- [0:0 4:0 29 4] [5 0] 1 0
r 2.128711250 _0_ MAC  --- 0 ACK 38 [0 0 0 0] 
s 2.128820971 _5_ MAC  --- 0 RTS 44 [58e 0 5 0] 
r 2.129173250 _0_ MAC  --- 0 RTS 44 [58e 0 5 0] 
s 2.129183250 _0_ MAC  --- 0 CTS 38 [454 5 0 0] 
r 2.129487529 _5_ MAC  --- 0 CTS 38 [454 5 0 0] 
s 2.129497529 _5_ MAC  --- 13 ack 98 [13a 0 5 800] ------- [4:0 0:0 29 0] [4 0] 1 0
r 2.130281808 _0_ MAC  --- 13 ack 40 [13a 0 5 800] ------- [4:0 0:0 29 0] [4 0] 2 0
s 2.130291808 _0_ MAC  --- 0 ACK 38 [0 5 0 0] 
r 2.130306808 _0_ AGT  --- 13 ack 40 [13a 0 5 800] ------- [4:0 0:0 29 0] [4 0] 2 0
s 2.130306808 _0_ AGT  --- 14 tcp 1040 [0 0 0 0] ------- [0:0 4:0 32 0] [9 0] 0 0
r 2.130306808 _0_ RTR  --- 14 tcp 1040 [0 0 0 0] ------- [0:0 4:0 32 0] [9 0] 0 0
s 2.130306808 _0_ AGT  --- 15 tcp 1040 [0 0 0 0] ------- [0:0 4:0 32 0] [10 0] 0 0
r 2.130306808 _0_ RTR  --- 15 tcp 1040 [0 0 0 0] ------- [0:0 4:0 32 0] [10 0] 0 0
s 2.130306808 _0_ RTR  --- 14 tcp 1040 [0 0 0 0] ------- [0:0 4:0 30 5] [9 0] 0 0
s 2.130306808 _0_ RTR  --- 15 tcp 1040 [0 0 0 0] ------- [0:0 4:0 30 5] [10 0] 0 0
r 2.130596087 _5_ MAC  --- 0 ACK 38 [0 5 0 0] 
s 2.130825808 _0_ MAC  --- 0 RTS 44 [24ce 5 0 0] 
r 2.131178087 _5_ MAC  --- 0 RTS 44 [24ce 5 0 0] 
s 2.131188087 _5_ MAC  --- 0 CTS 38 [2394 0 0 0] 
r 2.131492367 _0_ MAC  --- 0 CTS 38 [2394 0 0 0] 
s 2.131502367 _0_ MAC  --- 9 tcp 1098 [13a 5 0 800] ------- [0:0 4:0 30 5] [6 0] 0 0
r 2.140286646 _5_ MAC  --- 9 tcp 1040 [13a 5 0 800] ------- [0:0 4:0 30 5] [6 0] 1 0
s 2.140296646 _5_ MAC  --- 0 ACK 38 [0 0 0 0] 
r 2.140311646 _5_ RTR  --- 9 tcp 1040 [13a 5 0 800] ------- [0:0 4:0 30 5] [6 0] 1 0
f 2.140311646 _5_ RTR  --- 9 tcp 1040 [13a 5 0 800] ------- [0:0 4:0 29 4] [6 0] 1 0
r 2.140600926 _0_ MAC  --- 0 ACK 38 [0 0 0 0] 
s 2.140770646 _5_ MAC  --- 0 RTS 44 [24ce 4 5 0] 
r 2.141123454 _4_ MAC  --- 0 RTS 44 [24ce 4 5 0] 
s 2.141133454 _4_ MAC  --- 0 CTS 38 [2394 5 0 0] 
r 2.141438261 _5_ MAC  --- 0 CTS 38 [2394 5 0 0] 
s 2.141448261 _5_ MAC  --- 8 tcp 1098 [13a 4 5 800] ------- [0:0 4:0 29 4] [5 0] 1 0
r 2.150233069 _4_ MAC  --- 8 tcp 1040 [13a 4 5 800] ------- [0:0 4:0 29 4] [5 0] 2 0
s 2.150243069 _4_ MAC  --- 0 ACK 38 [0 5 0 0] 
r 2.150258069 _4_ AGT  --- 8 tcp 1040 [13a 4 5 800] ------- [0:0 4:0 29 4] [5 0] 2 0
s 2.150258069 _4_ AGT  --- 16 ack 40 [0 0 0 0] ------- [4:0 0:0 32 0] [5 0] 0 0
r 2.150258069 _4_ RTR  --- 16 ack 40 [0 0 0 0] ------- [4:0 0:0 32 0] [5 0] 0 0
s 2.150258069 _4_ RTR  --- 16 ack 40 [0 0 0 0] ------- [4:0 0:0 30 5] [5 0] 0 0
r 2.150547875 _5_ MAC  --- 0 ACK 38 [0 5 0 0] 
s 2.150617069 _4_ MAC  --- 0 RTS 44 [58e 5 4 0] 
r 2.150969875 _5_ MAC  --- 0 RTS 44 [58e 5 4 0] 
s 2.150979875 _5_ MAC  --- 0 CTS 38 [454 4 0 0] 
r 2.151284682 _4_ MAC  --- 0 CTS 38 [454 4 0 0] 
s 2.151294682 _4_ MAC  --- 16 ack 98 [13a 5 4 800] ------- [4:0 0:0 30 5] [5 0] 0 0
r 2.152079488 _5_ MAC  --- 16 ack 40 [13a 5 4 800] ------- [4:0 0:0 30 5] [5 0] 1 0
s 2.152089488 _5_ MAC  --- 0 ACK 38 [0 4 0 0] 
r 2.152104488 _5_ RTR  --- 16 ack 40 [13a 5 4 800] ------- [4:0 0:0 30 5] [5 0] 1 0
f 2.152104488 _5_ RTR  --- 16 ack 40 [13a 5 4 800] ------- [4:0 0:0 29 0] [5 0] 1 0
r 2.152394294 _4_ MAC  --- 0 ACK 38 [0 4 0 0] 
s 2.152653758 _0_ MAC  --- 0 RTS 44 [24ce 5 0 0] 
r 2.153006039 _5_ MAC  --- 0 RTS 44 [24ce 5 0 0] 
s 2.153016039 _5_ MAC  --- 0 CTS 38 [2394 0 0 0] 
r 2.153320320 _0_ MAC  --- 0 CTS 38 [2394 0 0 0] 
s 2.153330320 _0_ MAC  --- 11 tcp 1098 [13a 5 0 800] ------- [0:0 4:0 30 5] [7 0] 0 0
r 2.162114601 _5_ MAC  --- 11 tcp 1040 [13a 5 0 800] ------- [0:0 4:0 30 5] [7 0] 1 0
s 2.162124601 _5_ MAC  --- 0 ACK 38 [0 0 0 0] 
r 2.162139601 _5_ RTR  --- 11 tcp 1040 [13a 5 0 800] ------- [0:0 4:0 30 5] [7 0] 1 0
f 2.162139601 _5_ RTR  --- 11 tcp 1040 [13a 5 0 800] ------- [0:0 4:0 29 4] [7 0] 1 0
r 2.162428883 _0_ MAC  --- 0 ACK 38 [0 0 0 0] 
s 2.162598883 _0_ MAC  --- 0 RTS 44 [24ce 5 0 0] 
r 2.162951165 _5_ MAC  --- 0 RTS 44 [24ce 5 0 0] 
s 2.162961165 _5_ MAC  --- 0 CTS 38 [2394 0 0 0] 
r 2.163265446 _0_ MAC  --- 0 CTS 38 [2394 0 0 0] 
s 2.163275446 _0_ MAC  --- 12 tcp 1098 [13a 5 0 800] ------- [0:0 4:0 30 5] [8 0] 0 0
r 2.172059728 _5_ MAC  --- 12 tcp 1040 [13a 5 0 800] ------- [0:0 4:0 30 5] [8 0] 1 0
s 2.172069728 _5_ MAC  --- 0 ACK 38 [0 0 0 0] 
r 2.172084728 _5_ RTR  --- 12 tcp 1040 [13a 5 0 800] ------- [0:0 4:0 30 5] [8 0] 1 0
f 2.172084728 _5_ RTR  --- 12 tcp 1040 [13a 5 0 800] ------- [0:0 4:0 29 4] [8 0] 1 0
r 2.172374010 _0_ MAC  --- 0 ACK 38 [0 0 0 0] 
s 2.172583728 _5_ MAC  --- 0 RTS 44 [24ce 4 5 0] 
r 2.172936532 _4_ MAC  --- 0 RTS 44 [24ce 4 5 0] 
s 2.172946532 _4_ MAC  --- 0 CTS 38 [2394 5 0 0] 
r 2.173251336 _5_ MAC  --- 0 CTS 38 [2394 5 0 0] 
s 2.173261336 _5_ MAC  --- 9 tcp 1098 [13a 4 5 800] ------- [0:0 4:0 29 4] [6 0] 1 0
r 2.182046140 _4_ MAC  --- 9 tcp 1040 [13a 4 5 800] ------- [0:0 4:0 29 4] [6 0] 2 0
s 2.182056140 _4_ MAC  --- 0 ACK 38 [0 5 0 0] 
r 2.182071140 _4_ AGT  --- 9 tcp 1040 [13a 4 5 800] ------- [0:0 4:0 29 4] [6 0] 2 0
s 2.182071140 _4_ AGT  --- 17 ack 40 [0 0 0 0] ------- [4:0 0:0 32 0] [6 0] 0 0
r 2.182071140 _4_ RTR  --- 17 ack 40 [0 0 0 0] ------- [4:0 0:0 32 0] [6 0] 0 0
s 2.182071140 _4_ RTR  --- 17 ack 40 [0 0 0 0] ------- [4:0 0:0 30 5] [6 0] 0 0
r 2.182360943 _5_ MAC  --- 0 ACK 38 [0 5 0 0] 
s 2.182450140 _4_ MAC  --- 0 RTS 44 [58e 5 4 0] 
r 2.182802943 _5_ MAC  --- 0 RTS 44 [58e 5 4 0] 
s 2.182812943 _5_ MAC  --- 0 CTS 38 [454 4 0 0] 
r 2.183117746 _4_ MAC  --- 0 CTS 38 [454 4 0 0] 
s 2.183127746 _4_ MAC  --- 17 ack 98 [13a 5 4 800] ------- [4:0 0:0 30 5] [6 0] 0 0
r 2.183912548 _5_ MAC  --- 17 ack 40 [13a 5 4 800] ------- [4:0 0:0 30 5] [6 0] 1 0
s 2.183922548 _5_ MAC  --- 0 ACK 38 [0 4 0 0] 
r 2.183937548 _5_ RTR  --- 17 ack 40 [13a 5 4 800] ------- [4:0 0:0 30 5] [6 0] 1 0
f 2.183937548 _5_ RTR  --- 17 ack 40 [13a 5 4 800] ------- [4:0 0:0 29 0] [6 0] 1 0
r 2.184227351 _4_ MAC  --- 0 ACK 38 [0 4 0 0] 
s 2.184466821 _0_ MAC  --- 0 RTS 44 [24ce 5 0 0] 
r 2.184819104 _5_ MAC  --- 0 RTS 44 [24ce 5 0 0] 
s 2.184829104 _5_ MAC  --- 0 CTS 38 [2394 0 0 0] 
r 2.185133387 _0_ MAC  --- 0 CTS 38 [2394 0 0 0] 
s 2.185143387 _0_ MAC  --- 14 tcp 1098 [13a 5 0 800] ------- [0:0 4:0 30 5] [9 0] 0 0
r 2.193927671 _5_ MAC  --- 14 tcp 1040 [13a 5 0 800] ------- [0:0 4:0 30 5] [9 0] 1 0
s 2.193937671 _5_ MAC  --- 0 ACK 38 [0 0 0 0] 
r 2.193952671 _5_ RTR  --- 14 tcp 1040 [13a 5 0 800] ------- [0:0 4:0 30 5] [9 0] 1 0
f 2.193952671 _5_ RTR  --- 14 tcp 1040 [13a 5 0 800] ------- [0:0 4:0 29 4] [9 0] 1 0
r 2.194241955 _0_ MAC  --- 0 ACK 38 [0 0 0 0] 
s 2.194491955 _0_ MAC  --- 0 RTS 44 [24ce 5 0 0] 
r 2.194844239 _5_ MAC  --- 0 RTS 44 [24ce 5 0 0] 
s 2.194854239 _5_ MAC  --- 0 CTS 38 [2394 0 0 0] 
r 2.195158523 _0_ MAC  --- 0 CTS 38 [2394 0 0 0] 
s 2.195168523 _0_ MAC  --- 15 tcp 1098 [13a 5 0 800] ------- [0:0 4:0 30 5] [10 0] 0 0
r 2.203952807 _5_ MAC  --- 15 tcp 1040 [13a 5 0 800] ------- [0:0 4:0 30 5] [10 0] 1 0
s 2.203962807 _5_ MAC  --- 0 ACK 38 [0 0 0 0] 
r 2.203977807 _5_ RTR  --- 15 tcp 1040 [13a 5 0 800] ------- [0:0 4:0 30 5] [10 0] 1 0