M 1.00000 0 (657.87, 587.05, 0.00), (618.07, 586.18), 10.00
M 1.00000 1 (159.80, 84.37, 0.00), (593.92, 284.06), 10.00
M 1.00000 2 (328.63, 114.50, 0.00), (54.54, 443.48), 10.00
M 1.00000 3 (336.51, 445.32, 0.00), (426.48, 490.59), 10.00
M 1.00000 4 (222.88, 300.91, 0.00), (145.80, 8.02), 10.00
M 1.00000 5 (54.51, 76.89, 0.00), (443.98, 222.71), 10.00
s 2.000000000 _0_ AGT  --- 0 tcp 40 [0 0 0 0] ------- [0:0 4:0 32 0] [0 0] 0 0
r 2.000000000 _0_ RTR  --- 0 tcp 40 [0 0 0 0] ------- [0:0 4:0 32 0] [0 0] 0 0
s 2.000000000 _0_ RTR  --- 0 AODV 48 [0 0 0 0] ------- [0:255 -1:255 30 0] [0x2 1 1 [4 0] [0 4]] (REQUEST)
s 2.000115000 _0_ MAC  --- 0 AODV 106 [0 ffffffff 0 800] ------- [0:255 -1:255 30 0] [0x2 1 1 [4 0] [0 4]] (REQUEST)
s 4.000000000 _0_ RTR  --- 0 AODV 48 [0 0 0 0] ------- [0:255 -1:255 30 0] [0x2 1 2 [4 0] [0 6]] (REQUEST)
s 4.000375000 _0_ MAC  --- 0 AODV 106 [0 ffffffff 0 800] ------- [0:255 -1:255 30 0] [0x2 1 2 [4 0] [0 6]] (REQUEST)
s 5.000000000 _0_ AGT  --- 1 tcp 40 [0 0 0 0] ------- [0:0 4:0 32 0] [0 0] 0 0
r 5.000000000 _0_ RTR  --- 1 tcp 40 [0 0 0 0] ------- [0:0 4:0 32 0] [0 0] 0 0
s 8.000000000 _0_ RTR  --- 0 AODV 48 [0 0 0 0] ------- [0:255 -1:255 30 0] [0x2 1 3 [4 0] [0 8]] (REQUEST)
s 8.000075000 _0_ MAC  --- 0 AODV 106 [0 ffffffff 0 800] ------- [0:255 -1:255 30 0] [0x2 1 3 [4 0] [0 8]] (REQUEST)
r 8.000923816 _3_ MAC  --- 0 AODV 48 [0 ffffffff 0 800] ------- [0:255 -1:255 30 0] [0x2 1 3 [4 0] [0 8]] (REQUEST)
r 8.000948816 _3_ RTR  --- 0 AODV 48 [0 ffffffff 0 800] ------- [0:255 -1:255 30 0] [0x2 1 3 [4 0] [0 8]] (REQUEST)
s 8.009113577 _3_ RTR  --- 0 AODV 48 [0 ffffffff 0 800] ------- [3:255 -1:255 29 0] [0x2 2 3 [4 0] [0 8]] (REQUEST)
s 8.009428577 _3_ MAC  --- 0 AODV 106 [0 ffffffff 3 800] ------- [3:255 -1:255 29 0] [0x2 2 3 [4 0] [0 8]] (REQUEST)
r 8.010277392 _0_ MAC  --- 0 AODV 48 [0 ffffffff 3 800] ------- [3:255 -1:255 29 0] [0x2 2 3 [4 0] [0 8]] (REQUEST)
r 8.010302392 _0_ RTR  --- 0 AODV 48 [0 ffffffff 3 800] ------- [3:255 -1:255 29 0] [0x2 2 3 [4 0] [0 8]] (REQUEST)
s 11.000000000 _0_ AGT  --- 2 tcp 40 [0 0 0 0] ------- [0:0 4:0 32 0] [0 0] 0 0
r 11.000000000 _0_ RTR  --- 2 tcp 40 [0 0 0 0] ------- [0:0 4:0 32 0] [0 0] 0 0
s 13.500000000 _0_ RTR  --- 0 AODV 48 [0 0 0 0] ------- [0:255 -1:255 30 0] [0x2 1 4 [4 0] [0 10]] (REQUEST)
s 13.500335000 _0_ MAC  --- 0 AODV 106 [0 ffffffff 0 800] ------- [0:255 -1:255 30 0] [0x2 1 4 [4 0] [0 10]] (REQUEST)
r 13.501183714 _3_ MAC  --- 0 AODV 48 [0 ffffffff 0 800] ------- [0:255 -1:255 30 0] [0x2 1 4 [4 0] [0 10]] (REQUEST)
r 13.501208714 _3_ RTR  --- 0 AODV 48 [0 ffffffff 0 800] ------- [0:255 -1:255 30 0] [0x2 1 4 [4 0] [0 10]] (REQUEST)
s 13.502850168 _3_ RTR  --- 0 AODV 48 [0 ffffffff 0 800] ------- [3:255 -1:255 29 0] [0x2 2 4 [4 0] [0 10]] (REQUEST)
s 13.503465168 _3_ MAC  --- 0 AODV 106 [0 ffffffff 3 800] ------- [3:255 -1:255 29 0] [0x2 2 4 [4 0] [0 10]] (REQUEST)
r 13.504313882 _0_ MAC  --- 0 AODV 48 [0 ffffffff 3 800] ------- [3:255 -1:255 29 0] [0x2 2 4 [4 0] [0 10]] (REQUEST)
r 13.504338882 _0_ RTR  --- 0 AODV 48 [0 ffffffff 3 800] ------- [3:255 -1:255 29 0] [0x2 2 4 [4 0] [0 10]] (REQUEST)
